 Set GAUSS_CDEF to "0-15".
 Set GAUSS_WDEF to "Scout-4-16".
 Entering Gaussian System, Link 0=g16
 Initial command:
 /apps/pgi-2020-20.4/gaussian16-C.01/g16/l1.exe "/work/mmh568/Gau_scratch/Gau-1216.inp" -scrdir="/work/mmh568/Gau_scratch/"
 Default CPUs for threads: 0-15
 Default linda workers: Scout-4-16
 Default is to use  16 SMP processors on each worker.
 Entering Link 1 = /apps/pgi-2020-20.4/gaussian16-C.01/g16/l1.exe PID=      1217.
  
 Copyright (c) 1988-2019, Gaussian, Inc.  All Rights Reserved.
  
 This is part of the Gaussian(R) 16 program.  It is based on
 the Gaussian(R) 09 system (copyright 2009, Gaussian, Inc.),
 the Gaussian(R) 03 system (copyright 2003, Gaussian, Inc.),
 the Gaussian(R) 98 system (copyright 1998, Gaussian, Inc.),
 the Gaussian(R) 94 system (copyright 1995, Gaussian, Inc.),
 the Gaussian 92(TM) system (copyright 1992, Gaussian, Inc.),
 the Gaussian 90(TM) system (copyright 1990, Gaussian, Inc.),
 the Gaussian 88(TM) system (copyright 1988, Gaussian, Inc.),
 the Gaussian 86(TM) system (copyright 1986, Carnegie Mellon
 University), and the Gaussian 82(TM) system (copyright 1983,
 Carnegie Mellon University). Gaussian is a federally registered
 trademark of Gaussian, Inc.
  
 This software contains proprietary and confidential information,
 including trade secrets, belonging to Gaussian, Inc.
  
 This software is provided under written license and may be
 used, copied, transmitted, or stored only in accord with that
 written license.
  
 The following legend is applicable only to US Government
 contracts under FAR:
  
                    RESTRICTED RIGHTS LEGEND
  
 Use, reproduction and disclosure by the US Government is
 subject to restrictions as set forth in subparagraphs (a)
 and (c) of the Commercial Computer Software - Restricted
 Rights clause in FAR 52.227-19.
  
 Gaussian, Inc.
 340 Quinnipiac St., Bldg. 40, Wallingford CT 06492
  
  
 ---------------------------------------------------------------
 Warning -- This program may not be used in any manner that
 competes with the business of Gaussian, Inc. or will provide
 assistance to any competitor of Gaussian, Inc.  The licensee
 of this program is prohibited from giving any competitor of
 Gaussian, Inc. access to this program.  By using this program,
 the user acknowledges that Gaussian, Inc. is engaged in the
 business of creating and licensing software in the field of
 computational chemistry and represents and warrants to the
 licensee that it is not a competitor of Gaussian, Inc. and that
 it will not use this program in any manner prohibited above.
 ---------------------------------------------------------------
  

 Cite this work as:
 Gaussian 16, Revision C.01,
 M. J. Frisch, G. W. Trucks, H. B. Schlegel, G. E. Scuseria, 
 M. A. Robb, J. R. Cheeseman, G. Scalmani, V. Barone, 
 G. A. Petersson, H. Nakatsuji, X. Li, M. Caricato, A. V. Marenich, 
 J. Bloino, B. G. Janesko, R. Gomperts, B. Mennucci, H. P. Hratchian, 
 J. V. Ortiz, A. F. Izmaylov, J. L. Sonnenberg, D. Williams-Young, 
 F. Ding, F. Lipparini, F. Egidi, J. Goings, B. Peng, A. Petrone, 
 T. Henderson, D. Ranasinghe, V. G. Zakrzewski, J. Gao, N. Rega, 
 G. Zheng, W. Liang, M. Hada, M. Ehara, K. Toyota, R. Fukuda, 
 J. Hasegawa, M. Ishida, T. Nakajima, Y. Honda, O. Kitao, H. Nakai, 
 T. Vreven, K. Throssell, J. A. Montgomery, Jr., J. E. Peralta, 
 F. Ogliaro, M. J. Bearpark, J. J. Heyd, E. N. Brothers, K. N. Kudin, 
 V. N. Staroverov, T. A. Keith, R. Kobayashi, J. Normand, 
 K. Raghavachari, A. P. Rendell, J. C. Burant, S. S. Iyengar, 
 J. Tomasi, M. Cossi, J. M. Millam, M. Klene, C. Adamo, R. Cammi, 
 J. W. Ochterski, R. L. Martin, K. Morokuma, O. Farkas, 
 J. B. Foresman, and D. J. Fox, Gaussian, Inc., Wallingford CT, 2019.
 
 ******************************************
 Gaussian 16:  ES64L-G16RevC.01  3-Jul-2019
                14-Jan-2021 
 ******************************************
 %nprocshared=16
 Will use up to   16 processors via shared memory.
 SetLPE:    new flags="-opt 'Tsnet.Node.lindarsharg: ssh'  -nodelist 'scout-4-16.hpc.msstate.edu' -env GAUSS_MDEF=0 -env GAUSS_EXEDIR="/apps/pgi-2020-20.4/gaussian16-C.01/g16/bsd:/apps/pgi-2020-20.4/gaussian16-C.01/g16" -env "MP_BIND=yes" -env "MP_BLIST=0,1,2,3,4,5,6,7,8,9,10,11,12,13,14,15" -env GAUSS_ADEF="0,1,2,3,4,5,6,7,8,9,10,11,12,13,14,15""
 Will use up to    1 processors via Linda.
 ------------------------------------------
 # m062x/6-311+g** opt=(tight,modredundant)
 ------------------------------------------
 1/7=10,18=120,19=15,26=3,38=1/1,3;
 2/9=110,12=2,17=6,18=5,40=1/2;
 3/5=4,6=6,7=111,11=2,25=1,30=1,71=1,74=-55/1,2,3;
 4//1;
 5/5=2,38=5/2;
 6/7=2,8=2,9=2,10=2,28=1/1;
 7//1,2,3,16;
 1/7=10,18=20,19=15,26=3/3(2);
 2/9=110/2;
 99//99;
 2/9=110/2;
 3/5=4,6=6,7=111,11=2,25=1,30=1,71=1,74=-55/1,2,3;
 4/5=5,16=3,69=1/1;
 5/5=2,38=5/2;
 7//1,2,3,16;
 1/7=10,18=20,19=15,26=3/3(-5);
 2/9=110/2;
 6/7=2,8=2,9=2,10=2,19=2,28=1/1;
 99/9=1/99;
 -------------------
 Title Card Required
 -------------------
 Symbolic Z-matrix:
 Charge =  0 Multiplicity = 1
 C                    -0.57024  -0.14256  -0.03991 
 C                    -0.99584  -1.39802   0.27198 
 C                    -2.41345  -1.48669   0.36825 
 C                    -3.04207  -0.29518   0.12468 
 S                    -1.88792   0.94735  -0.23896 
 H                     0.44151   0.20889  -0.16931 
 H                    -0.32525  -2.22977   0.43677 
 H                    -2.94983  -2.38951   0.62937 
 C                    -4.46677   0.00072   0.13975 
 C                    -5.14278   1.16415   0.39199 
 S                    -5.51159  -1.33523  -0.22326 
 C                    -6.55627   1.01562   0.31001 
 H                    -4.64248   2.08851   0.64935 
 C                    -6.93147  -0.25629   0.00007 
 H                    -7.25977   1.81795   0.48322 
 H                    -7.9287   -0.65011  -0.11967 
 
 The following ModRedundant input section has been read:
 A       4       9      11 S  10 1.0000                                        
 

 GradGradGradGradGradGradGradGradGradGradGradGradGradGradGradGradGradGrad
 Berny optimization.
 Initialization pass.
                           ----------------------------
                           !    Initial Parameters    !
                           ! (Angstroms and Degrees)  !
 --------------------------                            --------------------------
 ! Name  Definition              Value          Derivative Info.                !
 --------------------------------------------------------------------------------
 ! R1    R(1,2)                  1.3618         estimate D2E/DX2                !
 ! R2    R(1,5)                  1.7216         estimate D2E/DX2                !
 ! R3    R(1,6)                  1.0788         estimate D2E/DX2                !
 ! R4    R(2,3)                  1.4236         estimate D2E/DX2                !
 ! R5    R(2,7)                  1.081          estimate D2E/DX2                !
 ! R6    R(3,4)                  1.369          estimate D2E/DX2                !
 ! R7    R(3,8)                  1.0821         estimate D2E/DX2                !
 ! R8    R(4,5)                  1.7344         estimate D2E/DX2                !
 ! R9    R(4,9)                  1.4552         estimate D2E/DX2                !
 ! R10   R(9,10)                 1.369          estimate D2E/DX2                !
 ! R11   R(9,11)                 1.7344         estimate D2E/DX2                !
 ! R12   R(10,12)                1.4236         estimate D2E/DX2                !
 ! R13   R(10,13)                1.0821         estimate D2E/DX2                !
 ! R14   R(11,14)                1.7972         estimate D2E/DX2                !
 ! R15   R(12,14)                1.3618         estimate D2E/DX2                !
 ! R16   R(12,15)                1.081          estimate D2E/DX2                !
 ! R17   R(14,16)                1.0788         estimate D2E/DX2                !
 ! A1    A(2,1,5)              111.7725         estimate D2E/DX2                !
 ! A2    A(2,1,6)              128.3795         estimate D2E/DX2                !
 ! A3    A(5,1,6)              119.8474         estimate D2E/DX2                !
 ! A4    A(1,2,3)              112.5877         estimate D2E/DX2                !
 ! A5    A(1,2,7)              123.3908         estimate D2E/DX2                !
 ! A6    A(3,2,7)              124.0189         estimate D2E/DX2                !
 ! A7    A(2,3,4)              113.0165         estimate D2E/DX2                !
 ! A8    A(2,3,8)              124.1844         estimate D2E/DX2                !
 ! A9    A(4,3,8)              122.7836         estimate D2E/DX2                !
 ! A10   A(3,4,5)              110.8094         estimate D2E/DX2                !
 ! A11   A(3,4,9)              128.6599         estimate D2E/DX2                !
 ! A12   A(5,4,9)              120.5306         estimate D2E/DX2                !
 ! A13   A(1,5,4)               91.8073         estimate D2E/DX2                !
 ! A14   A(4,9,10)             131.1599         estimate D2E/DX2                !
 ! A15   A(4,9,11)             115.5307         Scan                            !
 ! A16   A(10,9,11)            113.3094         estimate D2E/DX2                !
 ! A17   A(9,10,12)            113.0165         estimate D2E/DX2                !
 ! A18   A(9,10,13)            122.7837         estimate D2E/DX2                !
 ! A19   A(12,10,13)           124.1843         estimate D2E/DX2                !
 ! A20   A(9,11,14)             89.2841         estimate D2E/DX2                !
 ! A21   A(10,12,14)           112.5877         estimate D2E/DX2                !
 ! A22   A(10,12,15)           124.0189         estimate D2E/DX2                !
 ! A23   A(14,12,15)           123.3909         estimate D2E/DX2                !
 ! A24   A(11,14,12)           111.7963         estimate D2E/DX2                !
 ! A25   A(11,14,16)           119.8238         estimate D2E/DX2                !
 ! A26   A(12,14,16)           128.3795         estimate D2E/DX2                !
 ! D1    D(5,1,2,3)             -0.6473         estimate D2E/DX2                !
 ! D2    D(5,1,2,7)            179.9168         estimate D2E/DX2                !
 ! D3    D(6,1,2,3)            179.6256         estimate D2E/DX2                !
 ! D4    D(6,1,2,7)              0.1897         estimate D2E/DX2                !
 ! D5    D(2,1,5,4)              0.7654         estimate D2E/DX2                !
 ! D6    D(6,1,5,4)           -179.4812         estimate D2E/DX2                !
 ! D7    D(1,2,3,4)              0.1247         estimate D2E/DX2                !
 ! D8    D(1,2,3,8)           -178.4733         estimate D2E/DX2                !
 ! D9    D(7,2,3,4)            179.5565         estimate D2E/DX2                !
 ! D10   D(7,2,3,8)              0.9585         estimate D2E/DX2                !
 ! D11   D(2,3,4,5)              0.449          estimate D2E/DX2                !
 ! D12   D(2,3,4,9)           -179.6143         estimate D2E/DX2                !
 ! D13   D(8,3,4,5)            179.0695         estimate D2E/DX2                !
 ! D14   D(8,3,4,9)             -0.9938         estimate D2E/DX2                !
 ! D15   D(3,4,5,1)             -0.687          estimate D2E/DX2                !
 ! D16   D(9,4,5,1)            179.3705         estimate D2E/DX2                !
 ! D17   D(3,4,9,10)           152.7082         estimate D2E/DX2                !
 ! D18   D(3,4,9,11)           -27.3632         estimate D2E/DX2                !
 ! D19   D(5,4,9,10)           -27.3606         estimate D2E/DX2                !
 ! D20   D(5,4,9,11)           152.568          estimate D2E/DX2                !
 ! D21   D(4,9,10,12)         -179.6182         estimate D2E/DX2                !
 ! D22   D(4,9,10,13)           -0.9979         estimate D2E/DX2                !
 ! D23   D(11,9,10,12)           0.4519         estimate D2E/DX2                !
 ! D24   D(11,9,10,13)         179.0722         estimate D2E/DX2                !
 ! D25   D(4,9,11,14)          179.3972         estimate D2E/DX2                !
 ! D26   D(10,9,11,14)          -0.6613         estimate D2E/DX2                !
 ! D27   D(9,10,12,14)           0.1244         estimate D2E/DX2                !
 ! D28   D(9,10,12,15)         179.5564         estimate D2E/DX2                !
 ! D29   D(13,10,12,14)       -178.4734         estimate D2E/DX2                !
 ! D30   D(13,10,12,15)          0.9586         estimate D2E/DX2                !
 ! D31   D(9,11,14,12)           0.7278         estimate D2E/DX2                !
 ! D32   D(9,11,14,16)        -179.4932         estimate D2E/DX2                !
 ! D33   D(10,12,14,11)         -0.6189         estimate D2E/DX2                !
 ! D34   D(10,12,14,16)        179.6256         estimate D2E/DX2                !
 ! D35   D(15,12,14,11)        179.945          estimate D2E/DX2                !
 ! D36   D(15,12,14,16)          0.1895         estimate D2E/DX2                !
 --------------------------------------------------------------------------------
 Trust Radius=3.00D-01 FncErr=1.00D-07 GrdErr=1.00D-06 EigMax=2.50D+02 EigMin=1.00D-04
 Number of optimizations in scan=  11
 Number of steps in this run=     89 maximum allowed number of steps=    100.
 GradGradGradGradGradGradGradGradGradGradGradGradGradGradGradGradGradGrad

                          Input orientation:                          
 ---------------------------------------------------------------------
 Center     Atomic      Atomic             Coordinates (Angstroms)
 Number     Number       Type             X           Y           Z
 ---------------------------------------------------------------------
      1          6           0       -0.570245   -0.142556   -0.039914
      2          6           0       -0.995840   -1.398022    0.271981
      3          6           0       -2.413450   -1.486690    0.368252
      4          6           0       -3.042071   -0.295181    0.124676
      5         16           0       -1.887923    0.947351   -0.238964
      6          1           0        0.441507    0.208892   -0.169306
      7          1           0       -0.325246   -2.229766    0.436773
      8          1           0       -2.949826   -2.389508    0.629369
      9          6           0       -4.466773    0.000720    0.139746
     10          6           0       -5.142777    1.164154    0.391992
     11         16           0       -5.511594   -1.335226   -0.223261
     12          6           0       -6.556272    1.015623    0.310010
     13          1           0       -4.642481    2.088509    0.649353
     14          6           0       -6.931474   -0.256291    0.000070
     15          1           0       -7.259774    1.817953    0.483219
     16          1           0       -7.928703   -0.650114   -0.119672
 ---------------------------------------------------------------------
                    Distance matrix (angstroms):
                    1          2          3          4          5
     1  C    0.000000
     2  C    1.361839   0.000000
     3  C    2.317477   1.423639   0.000000
     4  C    2.481997   2.329167   1.369010   0.000000
     5  S    1.721567   2.560791   2.563092   1.734410   0.000000
     6  H    1.078842   2.200653   3.363740   3.532115   2.444672
     7  H    2.154925   1.081042   2.217533   3.349801   3.604532
     8  H    3.340530   2.220097   1.082110   2.156254   3.607806
     9  C    3.903298   3.744508   2.545729   1.455183   2.773084
    10  C    4.775152   4.876088   3.804834   2.571785   3.322526
    11  S    5.086552   4.543263   3.157740   2.702091   4.282685
    12  C    6.107073   6.061809   4.840241   3.755284   4.701012
    13  H    4.694235   5.059278   4.222516   2.918659   3.111099
    14  C    6.362371   6.050556   4.697018   3.891592   5.190693
    15  H    6.990498   7.044429   5.866919   4.731057   5.489652
    16  H    7.376373   6.984078   5.599638   4.905594   6.249572
                    6          7          8          9         10
     6  H    0.000000
     7  H    2.627222   0.000000
     8  H    4.346344   2.636480   0.000000
     9  C    4.922404   4.713336   2.872986   0.000000
    10  C    5.693137   5.893157   4.182571   1.369010   0.000000
    11  S    6.150335   5.304154   2.898473   1.734410   2.600281
    12  C    7.060416   7.026685   4.970248   2.329168   1.423640
    13  H    5.481797   6.109927   4.787287   2.156255   1.082110
    14  C    7.389583   6.908513   4.560719   2.481998   2.317478
    15  H    7.894593   8.029562   6.024927   3.349801   2.217533
    16  H    8.414319   7.785723   5.326891   3.532116   3.363741
                   11         12         13         14         15
    11  S    0.000000
    12  C    2.627208   0.000000
    13  H    3.638513   2.220098   0.000000
    14  C    1.797230   1.361839   3.340531   0.000000
    15  H    3.673933   1.081041   2.636479   2.154925   0.000000
    16  H    2.514463   2.200653   4.346345   1.078842   2.627223
                   16
    16  H    0.000000
 Stoichiometry    C8H6S2
 Framework group  C1[X(C8H6S2)]
 Deg. of freedom    42
 Full point group                 C1      NOp   1
 Largest Abelian subgroup         C1      NOp   1
 Largest concise Abelian subgroup C1      NOp   1
                         Standard orientation:                         
 ---------------------------------------------------------------------
 Center     Atomic      Atomic             Coordinates (Angstroms)
 Number     Number       Type             X           Y           Z
 ---------------------------------------------------------------------
      1          6           0       -3.169268   -0.134033   -0.060563
      2          6           0       -2.778479    1.131985    0.254219
      3          6           0       -1.363381    1.262121    0.339721
      4          6           0       -0.701789    0.090915    0.085239
      5         16           0       -1.821589   -1.183495   -0.275462
      6          1           0       -4.171197   -0.514658   -0.183705
      7          1           0       -3.472021    1.942720    0.428458
      8          1           0       -0.851846    2.179170    0.601092
      9          6           0        0.731112   -0.162749    0.087567
     10          6           0        1.443226   -1.306848    0.328650
     11         16           0        1.733024    1.205252   -0.277017
     12          6           0        2.851006   -1.116150    0.236237
     13          1           0        0.972564   -2.246821    0.585341
     14          6           0        3.185933    0.167773   -0.070307
     15          1           0        3.579292   -1.898117    0.399872
     16          1           0        4.170087    0.591509   -0.195963
 ---------------------------------------------------------------------
 Rotational constants (GHZ):           2.6573869           0.6591283           0.5398683
 Standard basis: 6-311+G(d,p) (5D, 7F)
 There are   282 symmetry adapted cartesian basis functions of A   symmetry.
 There are   272 symmetry adapted basis functions of A   symmetry.
   272 basis functions,   436 primitive gaussians,   282 cartesian basis functions
    43 alpha electrons       43 beta electrons
       nuclear repulsion energy       632.5577008753 Hartrees.
 NAtoms=   16 NActive=   16 NUniq=   16 SFac= 1.00D+00 NAtFMM=   60 NAOKFM=F Big=F
 Integral buffers will be    131072 words long.
 Raffenetti 2 integral format.
 Two-electron integral symmetry is turned on.
 One-electron integrals computed using PRISM.
 NBasis=   272 RedAO= T EigKep=  1.09D-06  NBF=   272
 NBsUse=   272 1.00D-06 EigRej= -1.00D+00 NBFU=   272
 ExpMin= 4.05D-02 ExpMax= 9.34D+04 ExpMxC= 3.17D+03 IAcc=3 IRadAn=         5 AccDes= 0.00D+00
 Harris functional with IExCor= 1009 and IRadAn=       5 diagonalized for initial guess.
 HarFok:  IExCor= 1009 AccDes= 0.00D+00 IRadAn=         5 IDoV= 1 UseB2=F ITyADJ=14
 ICtDFT=  3500011 ScaDFX=  1.000000  1.000000  1.000000  1.000000
 FoFCou: FMM=F IPFlag=           0 FMFlag=      100000 FMFlg1=           0
         NFxFlg=           0 DoJE=T BraDBF=F KetDBF=T FulRan=T
         wScrn=  0.000000 ICntrl=       500 IOpCl=  0 I1Cent=   200000004 NGrid=           0
         NMat0=    1 NMatS0=      1 NMatT0=    0 NMatD0=    1 NMtDS0=    0 NMtDT0=    0
 Petite list used in FoFCou.
 Requested convergence on RMS density matrix=1.00D-08 within 128 cycles.
 Requested convergence on MAX density matrix=1.00D-06.
 Requested convergence on             energy=1.00D-06.
 No special actions if energy rises.
 SCF Done:  E(RM062X) =  -1104.75283645     A.U. after   16 cycles
            NFock= 16  Conv=0.32D-08     -V/T= 2.0020

 **********************************************************************

            Population analysis using the SCF Density.

 **********************************************************************

 Orbital symmetries:
       Occupied  (A) (A) (A) (A) (A) (A) (A) (A) (A) (A) (A) (A)
                 (A) (A) (A) (A) (A) (A) (A) (A) (A) (A) (A) (A)
                 (A) (A) (A) (A) (A) (A) (A) (A) (A) (A) (A) (A)
                 (A) (A) (A) (A) (A) (A) (A)
       Virtual   (A) (A) (A) (A) (A) (A) (A) (A) (A) (A) (A) (A)
                 (A) (A) (A) (A) (A) (A) (A) (A) (A) (A) (A) (A)
                 (A) (A) (A) (A) (A) (A) (A) (A) (A) (A) (A) (A)
                 (A) (A) (A) (A) (A) (A) (A) (A) (A) (A) (A) (A)
                 (A) (A) (A) (A) (A) (A) (A) (A) (A) (A) (A) (A)
                 (A) (A) (A) (A) (A) (A) (A) (A) (A) (A) (A) (A)
                 (A) (A) (A) (A) (A) (A) (A) (A) (A) (A) (A) (A)
                 (A) (A) (A) (A) (A) (A) (A) (A) (A) (A) (A) (A)
                 (A) (A) (A) (A) (A) (A) (A) (A) (A) (A) (A) (A)
                 (A) (A) (A) (A) (A) (A) (A) (A) (A) (A) (A) (A)
                 (A) (A) (A) (A) (A) (A) (A) (A) (A) (A) (A) (A)
                 (A) (A) (A) (A) (A) (A) (A) (A) (A) (A) (A) (A)
                 (A) (A) (A) (A) (A) (A) (A) (A) (A) (A) (A) (A)
                 (A) (A) (A) (A) (A) (A) (A) (A) (A) (A) (A) (A)
                 (A) (A) (A) (A) (A) (A) (A) (A) (A) (A) (A) (A)
                 (A) (A) (A) (A) (A) (A) (A) (A) (A) (A) (A) (A)
                 (A) (A) (A) (A) (A) (A) (A) (A) (A) (A) (A) (A)
                 (A) (A) (A) (A) (A) (A) (A) (A) (A) (A) (A) (A)
                 (A) (A) (A) (A) (A) (A) (A) (A) (A) (A) (A) (A)
                 (A)
 The electronic state is 1-A.
 Alpha  occ. eigenvalues --  -89.92941 -89.92880 -10.58962 -10.58778 -10.57861
 Alpha  occ. eigenvalues --  -10.57409 -10.55378 -10.55214 -10.55144 -10.55079
 Alpha  occ. eigenvalues --   -8.29447  -8.29403  -6.21517  -6.21474  -6.21300
 Alpha  occ. eigenvalues --   -6.21261  -6.21083  -6.21019  -1.00435  -0.97657
 Alpha  occ. eigenvalues --   -0.86707  -0.83885  -0.82345  -0.79541  -0.68165
 Alpha  occ. eigenvalues --   -0.65789  -0.62752  -0.60680  -0.60196  -0.54317
 Alpha  occ. eigenvalues --   -0.48247  -0.48100  -0.47811  -0.46627  -0.45621
 Alpha  occ. eigenvalues --   -0.44065  -0.42998  -0.41311  -0.40107  -0.33400
 Alpha  occ. eigenvalues --   -0.31368  -0.30960  -0.26319
 Alpha virt. eigenvalues --   -0.02424   0.00966   0.01470   0.02496   0.02814
 Alpha virt. eigenvalues --    0.03011   0.03579   0.04163   0.04405   0.04641
 Alpha virt. eigenvalues --    0.05616   0.06137   0.06393   0.06827   0.07495
 Alpha virt. eigenvalues --    0.07855   0.09035   0.09208   0.09819   0.10114
 Alpha virt. eigenvalues --    0.10900   0.11645   0.12569   0.13636   0.13707
 Alpha virt. eigenvalues --    0.14231   0.14662   0.14876   0.15791   0.16270
 Alpha virt. eigenvalues --    0.16893   0.17334   0.18069   0.18136   0.18339
 Alpha virt. eigenvalues --    0.18991   0.19668   0.20020   0.20572   0.20995
 Alpha virt. eigenvalues --    0.21216   0.21566   0.21851   0.22217   0.23401
 Alpha virt. eigenvalues --    0.23544   0.24606   0.24959   0.26234   0.27115
 Alpha virt. eigenvalues --    0.27340   0.27845   0.28782   0.29243   0.29828
 Alpha virt. eigenvalues --    0.31761   0.35097   0.35896   0.36632   0.37081
 Alpha virt. eigenvalues --    0.38177   0.39275   0.42722   0.43664   0.45337
 Alpha virt. eigenvalues --    0.46821   0.48560   0.51464   0.53549   0.55210
 Alpha virt. eigenvalues --    0.56477   0.57500   0.58114   0.58553   0.58990
 Alpha virt. eigenvalues --    0.61538   0.62948   0.63233   0.64477   0.65307
 Alpha virt. eigenvalues --    0.66804   0.67858   0.70390   0.70699   0.74628
 Alpha virt. eigenvalues --    0.74751   0.75282   0.75581   0.77592   0.79066
 Alpha virt. eigenvalues --    0.79169   0.79501   0.80394   0.81611   0.82093
 Alpha virt. eigenvalues --    0.83272   0.83851   0.84241   0.85907   0.86051
 Alpha virt. eigenvalues --    0.87267   0.88739   0.91041   0.91506   0.93413
 Alpha virt. eigenvalues --    0.95064   0.96190   0.96660   0.99559   1.01664
 Alpha virt. eigenvalues --    1.02266   1.05220   1.05467   1.07870   1.08598
 Alpha virt. eigenvalues --    1.08720   1.13397   1.13940   1.15228   1.17422
 Alpha virt. eigenvalues --    1.22459   1.28397   1.29876   1.37645   1.37861
 Alpha virt. eigenvalues --    1.40625   1.45239   1.50268   1.56326   1.56987
 Alpha virt. eigenvalues --    1.59023   1.59420   1.60627   1.61707   1.61991
 Alpha virt. eigenvalues --    1.62394   1.67892   1.68330   1.71626   1.73270
 Alpha virt. eigenvalues --    1.73350   1.76370   1.77375   1.77662   1.77959
 Alpha virt. eigenvalues --    1.81271   1.82793   1.85239   1.86628   1.90234
 Alpha virt. eigenvalues --    1.91508   1.93108   1.94926   1.98323   1.98894
 Alpha virt. eigenvalues --    1.99337   2.02610   2.03686   2.06277   2.07363
 Alpha virt. eigenvalues --    2.11008   2.12704   2.14422   2.15940   2.17041
 Alpha virt. eigenvalues --    2.19409   2.24946   2.29836   2.32257   2.39915
 Alpha virt. eigenvalues --    2.42013   2.45448   2.46730   2.50185   2.56140
 Alpha virt. eigenvalues --    2.66963   2.68236   2.71837   2.73526   2.74392
 Alpha virt. eigenvalues --    2.74993   2.76227   2.76905   2.77648   2.78325
 Alpha virt. eigenvalues --    2.79571   2.80538   2.82400   2.87220   2.92108
 Alpha virt. eigenvalues --    2.97964   3.04348   3.06506   3.18519   3.19846
 Alpha virt. eigenvalues --    3.23135   3.28378   3.31563   3.33204   3.39139
 Alpha virt. eigenvalues --    3.40796   3.43090   3.56465   3.57742   3.66252
 Alpha virt. eigenvalues --    3.89039   4.07013   4.07521   4.19459   4.30344
 Alpha virt. eigenvalues --    4.53528   8.11713   8.14703  17.47382  17.48594
 Alpha virt. eigenvalues --   17.64846  17.66820  17.69360  17.70643  23.61958
 Alpha virt. eigenvalues --   23.81035  23.89043  23.93631  24.17692  24.20490
 Alpha virt. eigenvalues --   24.23743  24.24331 189.41152 189.44483
          Condensed to atoms (all electrons):
               1          2          3          4          5          6
     1  C    5.848023   0.071681   0.961245  -0.195764  -0.179685   0.332167
     2  C    0.071681   6.999054  -1.486422   1.589868   0.493476   0.050135
     3  C    0.961245  -1.486422  10.638498  -4.078793  -2.027202  -0.052017
     4  C   -0.195764   1.589868  -4.078793  30.898180   1.068387   0.034201
     5  S   -0.179685   0.493476  -2.027202   1.068387  16.944563  -0.022342
     6  H    0.332167   0.050135  -0.052017   0.034201  -0.022342   0.454376
     7  H    0.000710   0.345669  -0.025842   0.005126   0.004465  -0.004330
     8  H   -0.036543   0.022654   0.203821   0.029932   0.019414  -0.000059
     9  C   -0.702854  -1.478105   1.672566 -22.215645  -0.026936   0.020136
    10  C   -0.226207   0.136822  -0.663556   1.056277   0.122575   0.001520
    11  S    0.075894  -0.082590   0.132834   0.374958   0.020073  -0.000732
    12  C   -0.004231  -0.030736   0.160789  -1.544507  -0.067064   0.000025
    13  H    0.004141  -0.002172  -0.000802   0.102454   0.003013  -0.000002
    14  C   -0.031269  -0.002999  -0.225678  -0.605641   0.071772   0.000046
    15  H    0.000095   0.000028   0.000488   0.020454   0.000261  -0.000000
    16  H    0.000037  -0.000001   0.001057   0.018453  -0.000563   0.000000
               7          8          9         10         11         12
     1  C    0.000710  -0.036543  -0.702854  -0.226207   0.075894  -0.004231
     2  C    0.345669   0.022654  -1.478105   0.136822  -0.082590  -0.030736
     3  C   -0.025842   0.203821   1.672566  -0.663556   0.132834   0.160789
     4  C    0.005126   0.029932 -22.215645   1.056277   0.374958  -1.544507
     5  S    0.004465   0.019414  -0.026936   0.122575   0.020073  -0.067064
     6  H   -0.004330  -0.000059   0.020136   0.001520  -0.000732   0.000025
     7  H    0.492078  -0.003521   0.020101   0.000004   0.000586   0.000019
     8  H   -0.003521   0.485433   0.104536  -0.005524   0.005151  -0.001630
     9  C    0.020101   0.104536  31.326460  -4.891819   1.058974   1.734204
    10  C    0.000004  -0.005524  -4.891819  12.080890  -2.418806  -1.399020
    11  S    0.000586   0.005151   1.058974  -2.418806  17.045502   0.510055
    12  C    0.000019  -0.001630   1.734204  -1.399020   0.510055   6.759733
    13  H    0.000001   0.000035   0.052380   0.179388   0.021719   0.024850
    14  C    0.000086   0.004140  -0.511620   1.209017  -0.236816   0.078215
    15  H    0.000000   0.000001   0.013411  -0.036918   0.004301   0.348764
    16  H   -0.000000  -0.000002   0.036234  -0.051599  -0.021539   0.045513
              13         14         15         16
     1  C    0.004141  -0.031269   0.000095   0.000037
     2  C   -0.002172  -0.002999   0.000028  -0.000001
     3  C   -0.000802  -0.225678   0.000488   0.001057
     4  C    0.102454  -0.605641   0.020454   0.018453
     5  S    0.003013   0.071772   0.000261  -0.000563
     6  H   -0.000002   0.000046  -0.000000   0.000000
     7  H    0.000001   0.000086   0.000000  -0.000000
     8  H    0.000035   0.004140   0.000001  -0.000002
     9  C    0.052380  -0.511620   0.013411   0.036234
    10  C    0.179388   1.209017  -0.036918  -0.051599
    11  S    0.021719  -0.236816   0.004301  -0.021539
    12  C    0.024850   0.078215   0.348764   0.045513
    13  H    0.485088  -0.037925  -0.003466  -0.000059
    14  C   -0.037925   5.851427  -0.000201   0.337182
    15  H   -0.003466  -0.000201   0.489314  -0.004029
    16  H   -0.000059   0.337182  -0.004029   0.455774
 Mulliken charges:
               1
     1  C    0.082560
     2  C   -0.626362
     3  C    0.789014
     4  C   -0.557941
     5  S   -0.424207
     6  H    0.186877
     7  H    0.164847
     8  H    0.172165
     9  C   -0.212023
    10  C    0.906955
    11  S   -0.489563
    12  C   -0.614979
    13  H    0.171359
    14  C    0.100263
    15  H    0.167497
    16  H    0.183540
 Sum of Mulliken charges =  -0.00000
 Mulliken charges with hydrogens summed into heavy atoms:
               1
     1  C    0.269437
     2  C   -0.461516
     3  C    0.961178
     4  C   -0.557941
     5  S   -0.424207
     9  C   -0.212023
    10  C    1.078314
    11  S   -0.489563
    12  C   -0.447483
    14  C    0.283803
 Electronic spatial extent (au):  <R**2>=           1986.4397
 Charge=             -0.0000 electrons
 Dipole moment (field-independent basis, Debye):
    X=             -0.0071    Y=             -0.0581    Z=              0.2948  Tot=              0.3006
 Quadrupole moment (field-independent basis, Debye-Ang):
   XX=            -60.3743   YY=            -67.8328   ZZ=            -78.6190
   XY=             -1.6761   XZ=              0.0795   YZ=             -0.0500
 Traceless Quadrupole moment (field-independent basis, Debye-Ang):
   XX=              8.5677   YY=              1.1092   ZZ=             -9.6769
   XY=             -1.6761   XZ=              0.0795   YZ=             -0.0500
 Octapole moment (field-independent basis, Debye-Ang**2):
  XXX=             -0.7312  YYY=             -0.0060  ZZZ=             -2.4999  XYY=              0.8983
  XXY=             -0.7762  XXZ=             -2.6554  XZZ=             -0.6079  YZZ=             -0.0899
  YYZ=              4.3597  XYZ=             -6.7385
 Hexadecapole moment (field-independent basis, Debye-Ang**3):
 XXXX=          -1816.7665 YYYY=           -537.8821 ZZZZ=           -130.6570 XXXY=             17.2588
 XXXZ=              1.1779 YYYX=            -17.7217 YYYZ=             -0.5247 ZZZX=              0.5368
 ZZZY=             -0.0009 XXYY=           -404.7835 XXZZ=           -415.8473 YYZZ=           -120.2931
 XXYZ=             -0.7925 YYXZ=             -0.2296 ZZXY=              5.8623
 N-N= 6.325577008753D+02 E-N=-3.874197646226D+03  KE= 1.102506257228D+03
 Calling FoFJK, ICntrl=      2127 FMM=F ISym2X=0 I1Cent= 0 IOpClX= 0 NMat=1 NMatS=1 NMatT=0.
 ***** Axes restored to original set *****
 -------------------------------------------------------------------
 Center     Atomic                   Forces (Hartrees/Bohr)
 Number     Number              X              Y              Z
 -------------------------------------------------------------------
      1        6           0.000172910    0.000380657   -0.000097167
      2        6          -0.000235644    0.000073573   -0.000075874
      3        6           0.000302818   -0.000132035    0.000215150
      4        6           0.003183062    0.007683188    0.001583263
      5       16           0.000469387   -0.000151595    0.000412788
      6        1           0.000042245   -0.000100653   -0.000108022
      7        1          -0.000061029   -0.000025776   -0.000003424
      8        1           0.000256755   -0.000002590    0.000222443
      9        6           0.004791163   -0.006523825   -0.001181444
     10        6           0.006172012   -0.002775404   -0.000550365
     11       16          -0.031338401    0.026379332    0.005040565
     12        6           0.000075027   -0.009643280   -0.002237063
     13        1           0.000372141   -0.000216528   -0.000109412
     14        6           0.015658550   -0.013774602   -0.002822396
     15        1          -0.000344618   -0.000227514   -0.000097468
     16        1           0.000483619   -0.000942948   -0.000191574
 -------------------------------------------------------------------
 Cartesian Forces:  Max     0.031338401 RMS     0.007117250

 GradGradGradGradGradGradGradGradGradGradGradGradGradGradGradGradGradGrad
 Berny optimization.
 FormGI is forming the generalized inverse of G from B-inverse, IUseBI=4.
 Internal  Forces:  Max     0.029172453 RMS     0.004530496
 Search for a local minimum.
 Step number   1 out of a maximum of   89 on scan point     1 out of    11
 All quantities printed in internal units (Hartrees-Bohrs-Radians)
 Mixed Optimization -- RFO/linear search
 Second derivative matrix not updated -- first step.
 ITU=  0
     Eigenvalues ---    0.01359   0.01458   0.01735   0.01786   0.01805
     Eigenvalues ---    0.01911   0.02047   0.02114   0.02173   0.02179
     Eigenvalues ---    0.02237   0.02313   0.02342   0.15994   0.15994
     Eigenvalues ---    0.15999   0.15999   0.16000   0.16000   0.22130
     Eigenvalues ---    0.22133   0.23799   0.23896   0.25000   0.26125
     Eigenvalues ---    0.31261   0.31280   0.32519   0.35741   0.35741
     Eigenvalues ---    0.35869   0.35869   0.36135   0.36135   0.37574
     Eigenvalues ---    0.40698   0.40714   0.47631   0.48007   0.51501
     Eigenvalues ---    0.515101000.000001000.000001000.000001000.00000
     Eigenvalues --- 1000.000001000.000001000.000001000.000001000.00000
     Eigenvalues --- 1000.000001000.000001000.000001000.000001000.00000
     Eigenvalues --- 1000.000001000.000001000.000001000.000001000.00000
     Eigenvalues --- 1000.000001000.000001000.000001000.000001000.00000
     Eigenvalues --- 1000.000001000.000001000.000001000.000001000.00000
     Eigenvalues --- 1000.000001000.000001000.000001000.000001000.00000
     Eigenvalues --- 1000.000001000.000001000.000001000.00000
 RFO step:  Lambda=-4.01473756D-03 EMin= 1.35878835D-02
 Linear search not attempted -- first point.
 Iteration  1 RMS(Cart)=  0.02350842 RMS(Int)=  0.00022878
 Iteration  2 RMS(Cart)=  0.00042211 RMS(Int)=  0.00006820
 Iteration  3 RMS(Cart)=  0.00000005 RMS(Int)=  0.00006820
 Iteration  1 RMS(Cart)=  0.00003647 RMS(Int)=  0.00000710
 Iteration  2 RMS(Cart)=  0.00001506 RMS(Int)=  0.00000791
 Iteration  3 RMS(Cart)=  0.00000622 RMS(Int)=  0.00000864
 Iteration  4 RMS(Cart)=  0.00000257 RMS(Int)=  0.00000900
 Iteration  5 RMS(Cart)=  0.00000106 RMS(Int)=  0.00000915
 Iteration  6 RMS(Cart)=  0.00000044 RMS(Int)=  0.00000921
 Variable       Old X    -DE/DX   Delta X   Delta X   Delta X     New X
                                 (Linear)    (Quad)   (Total)
    R1        2.57350   0.00004   0.00000   0.00004   0.00004   2.57355
    R2        3.25329  -0.00025   0.00000  -0.00077  -0.00077   3.25252
    R3        2.03872   0.00002   0.00000   0.00006   0.00006   2.03877
    R4        2.69029  -0.00004   0.00000  -0.00011  -0.00011   2.69017
    R5        2.04287  -0.00002   0.00000  -0.00005  -0.00005   2.04282
    R6        2.58705   0.00040   0.00000   0.00081   0.00081   2.58787
    R7        2.04489  -0.00007   0.00000  -0.00020  -0.00020   2.04469
    R8        3.27756   0.00037   0.00000   0.00119   0.00119   3.27875
    R9        2.74990   0.00245   0.00000   0.00646   0.00646   2.75635
   R10        2.58705  -0.00680   0.00000  -0.01647  -0.01638   2.57067
   R11        3.27756   0.00278   0.00000   0.00409   0.00423   3.28179
   R12        2.69029   0.00453   0.00000   0.01098   0.01091   2.70120
   R13        2.04489  -0.00004   0.00000  -0.00011  -0.00011   2.04478
   R14        3.39627  -0.02917   0.00000  -0.10447  -0.10451   3.29176
   R15        2.57350  -0.00540   0.00000  -0.00682  -0.00697   2.56654
   R16        2.04287   0.00004   0.00000   0.00011   0.00011   2.04298
   R17        2.03872  -0.00008   0.00000  -0.00022  -0.00022   2.03849
    A1        1.95080  -0.00025   0.00000  -0.00124  -0.00124   1.94955
    A2        2.24065   0.00004   0.00000   0.00010   0.00011   2.24075
    A3        2.09173   0.00021   0.00000   0.00114   0.00115   2.09288
    A4        1.96503   0.00026   0.00000   0.00109   0.00108   1.96611
    A5        2.15358  -0.00007   0.00000  -0.00017  -0.00017   2.15341
    A6        2.16454  -0.00019   0.00000  -0.00092  -0.00091   2.16363
    A7        1.97251   0.00008   0.00000   0.00045   0.00043   1.97294
    A8        2.16743  -0.00029   0.00000  -0.00169  -0.00169   2.16574
    A9        2.14298   0.00020   0.00000   0.00128   0.00129   2.14427
   A10        1.93399  -0.00047   0.00000  -0.00172  -0.00174   1.93225
   A11        2.24554   0.00054   0.00000   0.00207   0.00207   2.24761
   A12        2.10366  -0.00007   0.00000  -0.00035  -0.00035   2.10331
   A13        1.60234   0.00038   0.00000   0.00157   0.00156   1.60390
   A14        2.28917  -0.00690   0.00000   0.02129   0.02112   2.31029
   A15        2.01639   0.01755   0.00000   0.00000  -0.00000   2.01639
   A16        1.97762  -0.01066   0.00000  -0.02129  -0.02113   1.95649
   A17        1.97251  -0.00085   0.00000  -0.01829  -0.01827   1.95424
   A18        2.14298  -0.00002   0.00000   0.00640   0.00638   2.14936
   A19        2.16742   0.00087   0.00000   0.01183   0.01182   2.17925
   A20        1.55830   0.01140   0.00000   0.03289   0.03307   1.59137
   A21        1.96503   0.00435   0.00000   0.02010   0.01989   1.98491
   A22        2.16454  -0.00174   0.00000  -0.00742  -0.00732   2.15722
   A23        2.15358  -0.00261   0.00000  -0.01268  -0.01257   2.14100
   A24        1.95121  -0.00424   0.00000  -0.01353  -0.01372   1.93750
   A25        2.09132   0.00103   0.00000   0.00008   0.00017   2.09149
   A26        2.24065   0.00322   0.00000   0.01344   0.01353   2.25417
    D1       -0.01130   0.00007   0.00000   0.00369   0.00369  -0.00761
    D2        3.14014   0.00009   0.00000   0.00339   0.00340  -3.13965
    D3        3.13506   0.00004   0.00000   0.00185   0.00185   3.13691
    D4        0.00331   0.00005   0.00000   0.00155   0.00156   0.00487
    D5        0.01336  -0.00017   0.00000  -0.00804  -0.00804   0.00532
    D6       -3.13254  -0.00014   0.00000  -0.00638  -0.00638  -3.13892
    D7        0.00218   0.00010   0.00000   0.00435   0.00435   0.00653
    D8       -3.11495   0.00008   0.00000   0.00262   0.00263  -3.11232
    D9        3.13385   0.00009   0.00000   0.00465   0.00465   3.13850
   D10        0.01673   0.00006   0.00000   0.00292   0.00293   0.01966
   D11        0.00784  -0.00023   0.00000  -0.01024  -0.01023  -0.00240
   D12       -3.13486  -0.00007   0.00000  -0.00268  -0.00268  -3.13754
   D13        3.12535  -0.00021   0.00000  -0.00859  -0.00858   3.11677
   D14       -0.01735  -0.00005   0.00000  -0.00103  -0.00103  -0.01837
   D15       -0.01199   0.00023   0.00000   0.01041   0.01041  -0.00159
   D16        3.13061   0.00008   0.00000   0.00355   0.00356   3.13417
   D17        2.66526  -0.00014   0.00000  -0.00732  -0.00732   2.65795
   D18       -0.47758  -0.00024   0.00000  -0.01260  -0.01260  -0.49018
   D19       -0.47753   0.00003   0.00000   0.00089   0.00089  -0.47664
   D20        2.66281  -0.00007   0.00000  -0.00439  -0.00440   2.65842
   D21       -3.13493   0.00003   0.00000   0.00195   0.00185  -3.13308
   D22       -0.01742  -0.00000   0.00000  -0.00065  -0.00071  -0.01812
   D23        0.00789   0.00011   0.00000   0.00713   0.00699   0.01487
   D24        3.12540   0.00008   0.00000   0.00453   0.00443   3.12983
   D25        3.13107  -0.00010   0.00000  -0.00371  -0.00391   3.12716
   D26       -0.01154  -0.00019   0.00000  -0.00801  -0.00810  -0.01964
   D27        0.00217  -0.00008   0.00000  -0.00208  -0.00215   0.00002
   D28        3.13385  -0.00005   0.00000  -0.00232  -0.00233   3.13152
   D29       -3.11495  -0.00004   0.00000   0.00066   0.00056  -3.11439
   D30        0.01673  -0.00000   0.00000   0.00042   0.00037   0.01710
   D31        0.01270   0.00015   0.00000   0.00668   0.00667   0.01938
   D32       -3.13275   0.00006   0.00000   0.00335   0.00337  -3.12938
   D33       -0.01080  -0.00007   0.00000  -0.00397  -0.00395  -0.01475
   D34        3.13506   0.00003   0.00000  -0.00025  -0.00021   3.13485
   D35        3.14063  -0.00012   0.00000  -0.00376  -0.00380   3.13683
   D36        0.00331  -0.00001   0.00000  -0.00004  -0.00006   0.00325
         Item               Value     Threshold  Converged?
 Maximum Force            0.027955     0.000015     NO 
 RMS     Force            0.003751     0.000010     NO 
 Maximum Displacement     0.088634     0.000060     NO 
 RMS     Displacement     0.023447     0.000040     NO 
 Predicted change in Energy=-2.042260D-03
 GradGradGradGradGradGradGradGradGradGradGradGradGradGradGradGradGradGrad

                          Input orientation:                          
 ---------------------------------------------------------------------
 Center     Atomic      Atomic             Coordinates (Angstroms)
 Number     Number       Type             X           Y           Z
 ---------------------------------------------------------------------
      1          6           0       -0.561750   -0.155584   -0.047452
      2          6           0       -1.000901   -1.405263    0.268961
      3          6           0       -2.418695   -1.477671    0.374759
      4          6           0       -3.036395   -0.280537    0.128421
      5         16           0       -1.867818    0.949858   -0.233408
      6          1           0        0.453340    0.182848   -0.185361
      7          1           0       -0.339535   -2.244986    0.430358
      8          1           0       -2.961783   -2.374223    0.643056
      9          6           0       -4.460662    0.033496    0.147396
     10          6           0       -5.142609    1.183522    0.398228
     11         16           0       -5.523599   -1.288323   -0.225308
     12          6           0       -6.556942    0.997051    0.308183
     13          1           0       -4.656896    2.114418    0.659673
     14          6           0       -6.921860   -0.273113   -0.005024
     15          1           0       -7.276506    1.785122    0.481228
     16          1           0       -7.910328   -0.686769   -0.129387
 ---------------------------------------------------------------------
                    Distance matrix (angstroms):
                    1          2          3          4          5
     1  C    0.000000
     2  C    1.361862   0.000000
     3  C    2.318279   1.423578   0.000000
     4  C    2.484031   2.329806   1.369440   0.000000
     5  S    1.721161   2.559397   2.562465   1.735040   0.000000
     6  H    1.078871   2.200755   3.364467   3.534322   2.445073
     7  H    2.154828   1.081014   2.216929   3.350117   3.603230
     8  H    3.340557   2.218984   1.082005   2.157299   3.607556
     9  C    3.908354   3.748966   2.550479   1.458599   2.776251
    10  C    4.793339   4.885924   3.808176   2.579225   3.343324
    11  S    5.092610   4.551129   3.168022   2.706832   4.286521
    12  C    6.115339   6.053283   4.822216   3.749506   4.720534
    13  H    4.735309   5.089902   4.241912   2.940078   3.151627
    14  C    6.361337   6.034449   4.676931   3.887762   5.204917
    15  H    7.009550   7.043212   5.852819   4.729690   5.519265
    16  H    7.368206   6.958095   5.571151   4.897623   6.261094
                    6          7          8          9         10
     6  H    0.000000
     7  H    2.627193   0.000000
     8  H    4.346027   2.634033   0.000000
     9  C    4.927519   4.717546   2.879136   0.000000
    10  C    5.714592   5.901290   4.180130   1.360342   0.000000
    11  S    6.155464   5.312215   2.914813   1.736649   2.577590
    12  C    7.074642   7.012980   4.939919   2.312722   1.429413
    13  H    5.528069   6.139756   4.798081   2.152016   1.082052
    14  C    7.391481   6.885118   4.529555   2.484902   2.334552
    15  H    7.922256   8.022839   5.995263   3.332960   2.218633
    16  H    8.408942   7.749727   5.285098   3.534910   3.381810
                   11         12         13         14         15
    11  S    0.000000
    12  C    2.564243   0.000000
    13  H    3.621190   2.232092   0.000000
    14  C    1.741927   1.358153   3.357408   0.000000
    15  H    3.608039   1.081098   2.646250   2.144423   0.000000
    16  H    2.463238   2.204171   4.365099   1.078725   2.623896
                   16
    16  H    0.000000
 Stoichiometry    C8H6S2
 Framework group  C1[X(C8H6S2)]
 Deg. of freedom    42
 Full point group                 C1      NOp   1
 Largest Abelian subgroup         C1      NOp   1
 Largest concise Abelian subgroup C1      NOp   1
                         Standard orientation:                         
 ---------------------------------------------------------------------
 Center     Atomic      Atomic             Coordinates (Angstroms)
 Number     Number       Type             X           Y           Z
 ---------------------------------------------------------------------
      1          6           0       -3.175856   -0.114736   -0.069135
      2          6           0       -2.772673    1.146236    0.250331
      3          6           0       -1.356961    1.261570    0.345378
      4          6           0       -0.704872    0.085184    0.087966
      5         16           0       -1.838070   -1.178661   -0.271092
      6          1           0       -4.181174   -0.483454   -0.200839
      7          1           0       -3.458139    1.964467    0.421287
      8          1           0       -0.839461    2.173013    0.614076
      9          6           0        0.728451   -0.185107    0.094129
     10          6           0        1.447290   -1.314908    0.333606
     11         16           0        1.747385    1.170528   -0.280009
     12          6           0        2.854483   -1.084699    0.233440
     13          1           0        0.992427   -2.261551    0.593998
     14          6           0        3.177804    0.197601   -0.075995
     15          1           0        3.599210   -1.851180    0.396725
     16          1           0        4.152111    0.641993   -0.205953
 ---------------------------------------------------------------------
 Rotational constants (GHZ):           2.6995329           0.6563201           0.5397986
 Standard basis: 6-311+G(d,p) (5D, 7F)
 There are   282 symmetry adapted cartesian basis functions of A   symmetry.
 There are   272 symmetry adapted basis functions of A   symmetry.
   272 basis functions,   436 primitive gaussians,   282 cartesian basis functions
    43 alpha electrons       43 beta electrons
       nuclear repulsion energy       633.7789033577 Hartrees.
 NAtoms=   16 NActive=   16 NUniq=   16 SFac= 1.00D+00 NAtFMM=   60 NAOKFM=F Big=F
 Integral buffers will be    131072 words long.
 Raffenetti 2 integral format.
 Two-electron integral symmetry is turned on.
 One-electron integrals computed using PRISM.
 NBasis=   272 RedAO= T EigKep=  1.09D-06  NBF=   272
 NBsUse=   272 1.00D-06 EigRej= -1.00D+00 NBFU=   272
 Initial guess from the checkpoint file:  "/work/mmh568/Gau_scratch/Gau-1217.chk"
 B after Tr=    -0.000000   -0.000000    0.000000
         Rot=    0.999998    0.001405   -0.000204    0.001144 Ang=   0.21 deg.
 ExpMin= 4.05D-02 ExpMax= 9.34D+04 ExpMxC= 3.17D+03 IAcc=3 IRadAn=         5 AccDes= 0.00D+00
 Harris functional with IExCor= 1009 and IRadAn=       5 diagonalized for initial guess.
 HarFok:  IExCor= 1009 AccDes= 0.00D+00 IRadAn=         5 IDoV= 1 UseB2=F ITyADJ=14
 ICtDFT=  3500011 ScaDFX=  1.000000  1.000000  1.000000  1.000000
 FoFCou: FMM=F IPFlag=           0 FMFlag=      100000 FMFlg1=           0
         NFxFlg=           0 DoJE=T BraDBF=F KetDBF=T FulRan=T
         wScrn=  0.000000 ICntrl=       500 IOpCl=  0 I1Cent=   200000004 NGrid=           0
         NMat0=    1 NMatS0=      1 NMatT0=    0 NMatD0=    1 NMtDS0=    0 NMtDT0=    0
 Petite list used in FoFCou.
 Requested convergence on RMS density matrix=1.00D-08 within 128 cycles.
 Requested convergence on MAX density matrix=1.00D-06.
 Requested convergence on             energy=1.00D-06.
 No special actions if energy rises.
 SCF Done:  E(RM062X) =  -1104.75509204     A.U. after   13 cycles
            NFock= 13  Conv=0.90D-08     -V/T= 2.0020
 Calling FoFJK, ICntrl=      2127 FMM=F ISym2X=0 I1Cent= 0 IOpClX= 0 NMat=1 NMatS=1 NMatT=0.
 ***** Axes restored to original set *****
 -------------------------------------------------------------------
 Center     Atomic                   Forces (Hartrees/Bohr)
 Number     Number              X              Y              Z
 -------------------------------------------------------------------
      1        6          -0.000127853    0.000211463    0.000318042
      2        6          -0.000122131    0.000007321   -0.000073787
      3        6          -0.000198929    0.000052163   -0.000121085
      4        6           0.002121664    0.008344720    0.002458433
      5       16          -0.000103082    0.000006217   -0.000472048
      6        1          -0.000021810   -0.000002934    0.000027937
      7        1          -0.000040831   -0.000057979   -0.000030806
      8        1           0.000039704    0.000009636    0.000012800
      9        6           0.007563360   -0.016077088   -0.003821774
     10        6          -0.003445725    0.000281914    0.000207841
     11       16          -0.011995251    0.007416049    0.001643175
     12        6          -0.001704821    0.004785409    0.001233968
     13        1          -0.000743537    0.000050246   -0.000059834
     14        6           0.008907310   -0.006492821   -0.001625860
     15        1           0.000026355    0.000610486    0.000175137
     16        1          -0.000154424    0.000855199    0.000127863
 -------------------------------------------------------------------
 Cartesian Forces:  Max     0.016077088 RMS     0.004025255

 GradGradGradGradGradGradGradGradGradGradGradGradGradGradGradGradGradGrad
 Berny optimization.
 Using GEDIIS/GDIIS optimizer.
 FormGI is forming the generalized inverse of G from B-inverse, IUseBI=4.
 Internal  Forces:  Max     0.015346817 RMS     0.002495786
 Search for a local minimum.
 Step number   2 out of a maximum of   89 on scan point     1 out of    11
 All quantities printed in internal units (Hartrees-Bohrs-Radians)
 Mixed Optimization -- RFO/linear search
 Update second derivatives using D2CorX and points    1    2
 DE= -2.26D-03 DEPred=-2.04D-03 R= 1.10D+00
 TightC=F SS=  1.41D+00  RLast= 1.26D-01 DXNew= 5.0454D-01 3.7830D-01
 Trust test= 1.10D+00 RLast= 1.26D-01 DXMaxT set to 3.78D-01
 ITU=  1  0
 Use linear search instead of GDIIS.
     Eigenvalues ---    0.01357   0.01454   0.01743   0.01786   0.01808
     Eigenvalues ---    0.01918   0.02047   0.02114   0.02173   0.02175
     Eigenvalues ---    0.02238   0.02312   0.02343   0.15938   0.15995
     Eigenvalues ---    0.15998   0.15999   0.16000   0.16027   0.18704
     Eigenvalues ---    0.22131   0.23699   0.23815   0.24996   0.26341
     Eigenvalues ---    0.31235   0.31285   0.32519   0.35741   0.35744
     Eigenvalues ---    0.35869   0.35878   0.36135   0.36136   0.37634
     Eigenvalues ---    0.40713   0.41114   0.47980   0.48104   0.51500
     Eigenvalues ---    0.548651000.000001000.000001000.000001000.00000
     Eigenvalues --- 1000.000001000.000001000.000001000.000001000.00000
     Eigenvalues --- 1000.000001000.000001000.000001000.000001000.00000
     Eigenvalues --- 1000.000001000.000001000.000001000.000001000.00000
     Eigenvalues --- 1000.000001000.000001000.000001000.000001000.00000
     Eigenvalues --- 1000.000001000.000001000.000001000.000001000.00000
     Eigenvalues --- 1000.000001000.000001000.000001000.000001000.00000
     Eigenvalues --- 1000.000001000.000001000.000001000.00000
 RFO step:  Lambda=-3.83375611D-04 EMin= 1.35704182D-02
 Quartic linear search produced a step of  0.08792.
 Iteration  1 RMS(Cart)=  0.00860115 RMS(Int)=  0.00005420
 Iteration  2 RMS(Cart)=  0.00006141 RMS(Int)=  0.00001924
 Iteration  3 RMS(Cart)=  0.00000000 RMS(Int)=  0.00001924
 Iteration  1 RMS(Cart)=  0.00000320 RMS(Int)=  0.00000062
 Iteration  2 RMS(Cart)=  0.00000132 RMS(Int)=  0.00000070
 Iteration  3 RMS(Cart)=  0.00000055 RMS(Int)=  0.00000076
 Variable       Old X    -DE/DX   Delta X   Delta X   Delta X     New X
                                 (Linear)    (Quad)   (Total)
    R1        2.57355   0.00011   0.00000   0.00024   0.00024   2.57379
    R2        3.25252  -0.00012  -0.00007  -0.00038  -0.00045   3.25208
    R3        2.03877  -0.00002   0.00000  -0.00007  -0.00007   2.03870
    R4        2.69017  -0.00017  -0.00001  -0.00043  -0.00044   2.68973
    R5        2.04282   0.00001  -0.00000   0.00005   0.00004   2.04286
    R6        2.58787  -0.00031   0.00007  -0.00067  -0.00060   2.58727
    R7        2.04469  -0.00003  -0.00002  -0.00008  -0.00009   2.04460
    R8        3.27875  -0.00006   0.00010  -0.00024  -0.00014   3.27861
    R9        2.75635  -0.00036   0.00057  -0.00104  -0.00047   2.75588
   R10        2.57067   0.00504  -0.00144   0.00782   0.00638   2.57705
   R11        3.28179   0.00123   0.00037  -0.00002   0.00034   3.28213
   R12        2.70120  -0.00204   0.00096  -0.00467  -0.00370   2.69750
   R13        2.04478  -0.00031  -0.00001  -0.00093  -0.00094   2.04384
   R14        3.29176  -0.00696  -0.00919  -0.02468  -0.03387   3.25789
   R15        2.56654   0.00075  -0.00061   0.00462   0.00401   2.57055
   R16        2.04298   0.00046   0.00001   0.00138   0.00139   2.04437
   R17        2.03849  -0.00020  -0.00002  -0.00060  -0.00062   2.03787
    A1        1.94955   0.00006  -0.00011   0.00038   0.00025   1.94980
    A2        2.24075  -0.00003   0.00001  -0.00019  -0.00018   2.24057
    A3        2.09288  -0.00003   0.00010  -0.00021  -0.00011   2.09277
    A4        1.96611   0.00001   0.00009   0.00007   0.00015   1.96626
    A5        2.15341   0.00006  -0.00001   0.00036   0.00035   2.15376
    A6        2.16363  -0.00006  -0.00008  -0.00046  -0.00053   2.16309
    A7        1.97294  -0.00016   0.00004  -0.00086  -0.00084   1.97210
    A8        2.16574   0.00005  -0.00015   0.00016   0.00002   2.16576
    A9        2.14427   0.00011   0.00011   0.00058   0.00070   2.14496
   A10        1.93225   0.00030  -0.00015   0.00125   0.00107   1.93332
   A11        2.24761   0.00003   0.00018   0.00016   0.00034   2.24795
   A12        2.10331  -0.00033  -0.00003  -0.00138  -0.00140   2.10191
   A13        1.60390  -0.00021   0.00014  -0.00090  -0.00080   1.60310
   A14        2.31029  -0.00976   0.00186   0.00397   0.00585   2.31614
   A15        2.01639   0.01535  -0.00000   0.00000   0.00000   2.01639
   A16        1.95649  -0.00558  -0.00186  -0.00396  -0.00584   1.95065
   A17        1.95424   0.00357  -0.00161   0.00454   0.00292   1.95716
   A18        2.14936  -0.00109   0.00056   0.00254   0.00311   2.15247
   A19        2.17925  -0.00248   0.00104  -0.00694  -0.00590   2.17334
   A20        1.59137   0.00262   0.00291  -0.00163   0.00124   1.59262
   A21        1.98491  -0.00286   0.00175  -0.01373  -0.01199   1.97293
   A22        2.15722   0.00098  -0.00064   0.00381   0.00316   2.16038
   A23        2.14100   0.00188  -0.00111   0.00997   0.00886   2.14987
   A24        1.93750   0.00226  -0.00121   0.01510   0.01388   1.95138
   A25        2.09149  -0.00026   0.00001  -0.00159  -0.00157   2.08992
   A26        2.25417  -0.00200   0.00119  -0.01348  -0.01229   2.24189
    D1       -0.00761  -0.00015   0.00032  -0.00933  -0.00901  -0.01662
    D2       -3.13965  -0.00011   0.00030  -0.00620  -0.00590   3.13763
    D3        3.13691  -0.00001   0.00016  -0.00135  -0.00119   3.13572
    D4        0.00487   0.00003   0.00014   0.00178   0.00192   0.00678
    D5        0.00532   0.00020  -0.00071   0.01298   0.01227   0.01759
    D6       -3.13892   0.00007  -0.00056   0.00576   0.00520  -3.13372
    D7        0.00653  -0.00000   0.00038  -0.00089  -0.00051   0.00602
    D8       -3.11232   0.00008   0.00023   0.00471   0.00494  -3.10738
    D9        3.13850  -0.00004   0.00041  -0.00403  -0.00362   3.13488
   D10        0.01966   0.00004   0.00026   0.00156   0.00182   0.02148
   D11       -0.00240   0.00015  -0.00090   0.01054   0.00964   0.00724
   D12       -3.13754   0.00008  -0.00024   0.00503   0.00480  -3.13274
   D13        3.11677   0.00007  -0.00075   0.00501   0.00426   3.12103
   D14       -0.01837   0.00000  -0.00009  -0.00049  -0.00058  -0.01896
   D15       -0.00159  -0.00020   0.00091  -0.01335  -0.01244  -0.01402
   D16        3.13417  -0.00013   0.00031  -0.00836  -0.00805   3.12612
   D17        2.65795  -0.00009  -0.00064  -0.00617  -0.00680   2.65115
   D18       -0.49018  -0.00007  -0.00111  -0.00397  -0.00509  -0.49527
   D19       -0.47664  -0.00016   0.00008  -0.01215  -0.01206  -0.48870
   D20        2.65842  -0.00015  -0.00039  -0.00995  -0.01036   2.64806
   D21       -3.13308  -0.00004   0.00016  -0.00600  -0.00584  -3.13892
   D22       -0.01812   0.00001  -0.00006  -0.00049  -0.00052  -0.01864
   D23        0.01487  -0.00012   0.00061  -0.00815  -0.00751   0.00737
   D24        3.12983  -0.00007   0.00039  -0.00264  -0.00219   3.12764
   D25        3.12716   0.00019  -0.00034   0.00983   0.00948   3.13664
   D26       -0.01964   0.00016  -0.00071   0.01161   0.01086  -0.00878
   D27        0.00002  -0.00005  -0.00019  -0.00127  -0.00140  -0.00138
   D28        3.13152   0.00003  -0.00021   0.00402   0.00384   3.13536
   D29       -3.11439  -0.00013   0.00005  -0.00707  -0.00696  -3.12135
   D30        0.01710  -0.00005   0.00003  -0.00177  -0.00171   0.01539
   D31        0.01938  -0.00008   0.00059  -0.01192  -0.01141   0.00797
   D32       -3.12938  -0.00005   0.00030  -0.00718  -0.00688  -3.13626
   D33       -0.01475   0.00011  -0.00035   0.00977   0.00945  -0.00530
   D34        3.13485   0.00006  -0.00002   0.00438   0.00436   3.13921
   D35        3.13683   0.00004  -0.00033   0.00457   0.00428   3.14111
   D36        0.00325  -0.00001  -0.00001  -0.00082  -0.00082   0.00243
         Item               Value     Threshold  Converged?
 Maximum Force            0.005917     0.000015     NO 
 RMS     Force            0.001080     0.000010     NO 
 Maximum Displacement     0.035568     0.000060     NO 
 RMS     Displacement     0.008598     0.000040     NO 
 Predicted change in Energy=-2.115630D-04
 GradGradGradGradGradGradGradGradGradGradGradGradGradGradGradGradGradGrad

                          Input orientation:                          
 ---------------------------------------------------------------------
 Center     Atomic      Atomic             Coordinates (Angstroms)
 Number     Number       Type             X           Y           Z
 ---------------------------------------------------------------------
      1          6           0       -0.562661   -0.157160   -0.050542
      2          6           0       -1.001694   -1.406298    0.268707
      3          6           0       -2.419190   -1.478691    0.375364
      4          6           0       -3.035994   -0.281800    0.127361
      5         16           0       -1.869090    0.944724   -0.252230
      6          1           0        0.452449    0.181026   -0.188622
      7          1           0       -0.340387   -2.245274    0.434326
      8          1           0       -2.961731   -2.373578    0.650049
      9          6           0       -4.459321    0.034965    0.151479
     10          6           0       -5.146785    1.184663    0.407043
     11         16           0       -5.526227   -1.284452   -0.219238
     12          6           0       -6.558983    0.999318    0.312343
     13          1           0       -4.667324    2.117597    0.670697
     14          6           0       -6.908165   -0.274820   -0.011684
     15          1           0       -7.281732    1.785772    0.484061
     16          1           0       -7.896106   -0.686146   -0.144791
 ---------------------------------------------------------------------
                    Distance matrix (angstroms):
                    1          2          3          4          5
     1  C    0.000000
     2  C    1.361990   0.000000
     3  C    2.318306   1.423346   0.000000
     4  C    2.482853   2.328701   1.369123   0.000000
     5  S    1.720925   2.559503   2.563089   1.734968   0.000000
     6  H    1.078834   2.200745   3.364380   3.533169   2.444754
     7  H    2.155162   1.081036   2.216427   3.348993   3.603385
     8  H    3.340491   2.218738   1.081955   2.157372   3.608199
     9  C    3.906620   3.747821   2.550178   1.458349   2.774876
    10  C    4.798340   4.890194   3.812379   2.585378   3.351939
    11  S    5.092762   4.552398   3.169378   2.706788   4.283102
    12  C    6.117598   6.055770   4.825182   3.753257   4.724068
    13  H    4.747943   5.100616   4.251425   2.951874   3.171362
    14  C    6.346713   6.020403   4.663690   3.874673   5.190127
    15  H    7.014748   7.048018   5.857716   4.735861   5.526859
    16  H    7.353103   6.944244   5.558354   4.884491   6.244694
                    6          7          8          9         10
     6  H    0.000000
     7  H    2.627467   0.000000
     8  H    4.345802   2.633334   0.000000
     9  C    4.925696   4.716472   2.879657   0.000000
    10  C    5.719574   5.904801   4.182654   1.363718   0.000000
    11  S    6.155739   5.314439   2.918646   1.736831   2.575410
    12  C    7.076775   7.015212   4.942742   2.316125   1.427453
    13  H    5.540831   6.149220   4.804178   2.156435   1.081555
    14  C    7.376838   6.871486   4.518519   2.473747   2.325485
    15  H    7.927500   8.027084   5.999179   3.337955   2.219293
    16  H    8.393586   7.736611   5.275155   3.524099   3.370937
                   11         12         13         14         15
    11  S    0.000000
    12  C    2.562181   0.000000
    13  H    3.619895   2.226508   0.000000
    14  C    1.724004   1.360276   3.348234   0.000000
    15  H    3.605926   1.081833   2.641982   2.152058   0.000000
    16  H    2.445372   2.199468   4.353278   1.078395   2.623603
                   16
    16  H    0.000000
 Stoichiometry    C8H6S2
 Framework group  C1[X(C8H6S2)]
 Deg. of freedom    42
 Full point group                 C1      NOp   1
 Largest Abelian subgroup         C1      NOp   1
 Largest concise Abelian subgroup C1      NOp   1
                         Standard orientation:                         
 ---------------------------------------------------------------------
 Center     Atomic      Atomic             Coordinates (Angstroms)
 Number     Number       Type             X           Y           Z
 ---------------------------------------------------------------------
      1          6           0       -3.175238   -0.118073   -0.063735
      2          6           0       -2.773243    1.144075    0.253121
      3          6           0       -1.357797    1.261676    0.345827
      4          6           0       -0.705511    0.085461    0.089822
      5         16           0       -1.836293   -1.177311   -0.280117
      6          1           0       -4.180332   -0.488408   -0.192274
      7          1           0       -3.459376    1.961240    0.426622
      8          1           0       -0.841460    2.173125    0.616534
      9          6           0        0.727393   -0.185606    0.099318
     10          6           0        1.453808   -1.313029    0.346229
     11         16           0        1.747784    1.167759   -0.279873
     12          6           0        2.858338   -1.082449    0.237819
     13          1           0        1.007098   -2.261167    0.613147
     14          6           0        3.163322    0.202624   -0.087637
     15          1           0        3.607559   -1.845578    0.401113
     16          1           0        4.136220    0.645536   -0.229886
 ---------------------------------------------------------------------
 Rotational constants (GHZ):           2.7009109           0.6566831           0.5405342
 Standard basis: 6-311+G(d,p) (5D, 7F)
 There are   282 symmetry adapted cartesian basis functions of A   symmetry.
 There are   272 symmetry adapted basis functions of A   symmetry.
   272 basis functions,   436 primitive gaussians,   282 cartesian basis functions
    43 alpha electrons       43 beta electrons
       nuclear repulsion energy       634.1621791791 Hartrees.
 NAtoms=   16 NActive=   16 NUniq=   16 SFac= 1.00D+00 NAtFMM=   60 NAOKFM=F Big=F
 Integral buffers will be    131072 words long.
 Raffenetti 2 integral format.
 Two-electron integral symmetry is turned on.
 One-electron integrals computed using PRISM.
 NBasis=   272 RedAO= T EigKep=  1.09D-06  NBF=   272
 NBsUse=   272 1.00D-06 EigRej= -1.00D+00 NBFU=   272
 Initial guess from the checkpoint file:  "/work/mmh568/Gau_scratch/Gau-1217.chk"
 B after Tr=    -0.000000   -0.000000    0.000000
         Rot=    1.000000    0.000102   -0.000063   -0.000386 Ang=   0.05 deg.
 ExpMin= 4.05D-02 ExpMax= 9.34D+04 ExpMxC= 3.17D+03 IAcc=3 IRadAn=         5 AccDes= 0.00D+00
 Harris functional with IExCor= 1009 and IRadAn=       5 diagonalized for initial guess.
 HarFok:  IExCor= 1009 AccDes= 0.00D+00 IRadAn=         5 IDoV= 1 UseB2=F ITyADJ=14
 ICtDFT=  3500011 ScaDFX=  1.000000  1.000000  1.000000  1.000000
 FoFCou: FMM=F IPFlag=           0 FMFlag=      100000 FMFlg1=           0
         NFxFlg=           0 DoJE=T BraDBF=F KetDBF=T FulRan=T
         wScrn=  0.000000 ICntrl=       500 IOpCl=  0 I1Cent=   200000004 NGrid=           0
         NMat0=    1 NMatS0=      1 NMatT0=    0 NMatD0=    1 NMtDS0=    0 NMtDT0=    0
 Petite list used in FoFCou.
 Requested convergence on RMS density matrix=1.00D-08 within 128 cycles.
 Requested convergence on MAX density matrix=1.00D-06.
 Requested convergence on             energy=1.00D-06.
 No special actions if energy rises.
 SCF Done:  E(RM062X) =  -1104.75529084     A.U. after   13 cycles
            NFock= 13  Conv=0.49D-08     -V/T= 2.0019
 Calling FoFJK, ICntrl=      2127 FMM=F ISym2X=0 I1Cent= 0 IOpClX= 0 NMat=1 NMatS=1 NMatT=0.
 ***** Axes restored to original set *****
 -------------------------------------------------------------------
 Center     Atomic                   Forces (Hartrees/Bohr)
 Number     Number              X              Y              Z
 -------------------------------------------------------------------
      1        6           0.000092999   -0.000141173   -0.000536890
      2        6           0.000132053    0.000109214    0.000189656
      3        6          -0.000078555    0.000138059    0.000340446
      4        6           0.001596480    0.008873761    0.001919894
      5       16          -0.000090581    0.000097167    0.000672734
      6        1           0.000011162   -0.000055393   -0.000085699
      7        1           0.000009602    0.000002621    0.000026712
      8        1           0.000003217    0.000006375    0.000058945
      9        6           0.005916495   -0.014396156   -0.003037416
     10        6          -0.001183817   -0.000411831   -0.000211575
     11       16          -0.005828578    0.004761452    0.000145392
     12        6          -0.000477914    0.002735724    0.000265206
     13        1           0.000072426    0.000100785    0.000000227
     14        6           0.000122126   -0.002084819    0.000084267
     15        1           0.000320213   -0.000221214   -0.000062610
     16        1          -0.000617326    0.000485428    0.000230710
 -------------------------------------------------------------------
 Cartesian Forces:  Max     0.014396156 RMS     0.002918118

 GradGradGradGradGradGradGradGradGradGradGradGradGradGradGradGradGradGrad
 Berny optimization.
 Using GEDIIS/GDIIS optimizer.
 FormGI is forming the generalized inverse of G from B-inverse, IUseBI=4.
 Internal  Forces:  Max     0.015621368 RMS     0.002317797
 Search for a local minimum.
 Step number   3 out of a maximum of   89 on scan point     1 out of    11
 All quantities printed in internal units (Hartrees-Bohrs-Radians)
 Mixed Optimization -- En-DIIS/RFO-DIIS
 Update second derivatives using D2CorX and points    1    2    3
 DE= -1.99D-04 DEPred=-2.12D-04 R= 9.40D-01
 TightC=F SS=  1.41D+00  RLast= 6.02D-02 DXNew= 6.3621D-01 1.8059D-01
 Trust test= 9.40D-01 RLast= 6.02D-02 DXMaxT set to 3.78D-01
 ITU=  1  1  0
 Use linear search instead of GDIIS.
     Eigenvalues ---    0.01335   0.01509   0.01776   0.01801   0.01892
     Eigenvalues ---    0.01947   0.02056   0.02115   0.02175   0.02180
     Eigenvalues ---    0.02254   0.02315   0.02346   0.14372   0.15993
     Eigenvalues ---    0.15998   0.15999   0.16000   0.16082   0.19178
     Eigenvalues ---    0.22135   0.23799   0.24867   0.25088   0.26591
     Eigenvalues ---    0.31237   0.31286   0.32521   0.35741   0.35749
     Eigenvalues ---    0.35869   0.35960   0.36135   0.36260   0.37682
     Eigenvalues ---    0.40729   0.41076   0.47986   0.48276   0.51500
     Eigenvalues ---    0.533151000.000001000.000001000.000001000.00000
     Eigenvalues --- 1000.000001000.000001000.000001000.000001000.00000
     Eigenvalues --- 1000.000001000.000001000.000001000.000001000.00000
     Eigenvalues --- 1000.000001000.000001000.000001000.000001000.00000
     Eigenvalues --- 1000.000001000.000001000.000001000.000001000.00000
     Eigenvalues --- 1000.000001000.000001000.000001000.000001000.00000
     Eigenvalues --- 1000.000001000.000001000.000001000.000001000.00000
     Eigenvalues --- 1000.000001000.000001000.000001000.00000
 RFO step:  Lambda=-8.99657432D-05 EMin= 1.33543632D-02
 Quartic linear search produced a step of -0.05345.
 Iteration  1 RMS(Cart)=  0.00820560 RMS(Int)=  0.00006761
 Iteration  2 RMS(Cart)=  0.00008826 RMS(Int)=  0.00002121
 Iteration  3 RMS(Cart)=  0.00000000 RMS(Int)=  0.00002121
 Iteration  1 RMS(Cart)=  0.00000476 RMS(Int)=  0.00000093
 Iteration  2 RMS(Cart)=  0.00000197 RMS(Int)=  0.00000104
 Iteration  3 RMS(Cart)=  0.00000081 RMS(Int)=  0.00000113
 Variable       Old X    -DE/DX   Delta X   Delta X   Delta X     New X
                                 (Linear)    (Quad)   (Total)
    R1        2.57379  -0.00004  -0.00001  -0.00001  -0.00002   2.57376
    R2        3.25208   0.00007   0.00002   0.00010   0.00012   3.25220
    R3        2.03870   0.00000   0.00000  -0.00000   0.00000   2.03870
    R4        2.68973   0.00016   0.00002   0.00026   0.00028   2.69002
    R5        2.04286   0.00001  -0.00000   0.00003   0.00003   2.04289
    R6        2.58727  -0.00002   0.00003  -0.00016  -0.00013   2.58714
    R7        2.04460   0.00001   0.00001  -0.00001  -0.00000   2.04460
    R8        3.27861  -0.00006   0.00001  -0.00017  -0.00017   3.27844
    R9        2.75588  -0.00037   0.00003  -0.00090  -0.00088   2.75500
   R10        2.57705   0.00234  -0.00034   0.00260   0.00226   2.57931
   R11        3.28213   0.00147  -0.00002   0.00055   0.00053   3.28266
   R12        2.69750  -0.00038   0.00020  -0.00105  -0.00085   2.69665
   R13        2.04384   0.00012   0.00005   0.00010   0.00015   2.04399
   R14        3.25789  -0.00031   0.00181  -0.00661  -0.00480   3.25309
   R15        2.57055  -0.00000  -0.00021   0.00371   0.00350   2.57405
   R16        2.04437  -0.00038  -0.00007  -0.00069  -0.00076   2.04361
   R17        2.03787   0.00035   0.00003   0.00076   0.00080   2.03867
    A1        1.94980  -0.00008  -0.00001  -0.00019  -0.00025   1.94955
    A2        2.24057   0.00001   0.00001  -0.00009  -0.00008   2.24049
    A3        2.09277   0.00008   0.00001   0.00036   0.00037   2.09314
    A4        1.96626   0.00002  -0.00001   0.00022   0.00018   1.96644
    A5        2.15376  -0.00002  -0.00002  -0.00001  -0.00003   2.15373
    A6        2.16309  -0.00000   0.00003  -0.00014  -0.00011   2.16298
    A7        1.97210   0.00002   0.00004  -0.00003  -0.00001   1.97209
    A8        2.16576  -0.00001  -0.00000  -0.00002  -0.00002   2.16574
    A9        2.14496  -0.00001  -0.00004   0.00019   0.00016   2.14513
   A10        1.93332  -0.00005  -0.00006   0.00005  -0.00004   1.93328
   A11        2.24795   0.00013  -0.00002   0.00059   0.00058   2.24853
   A12        2.10191  -0.00008   0.00007  -0.00065  -0.00056   2.10135
   A13        1.60310   0.00010   0.00004   0.00031   0.00029   1.60339
   A14        2.31614  -0.01071  -0.00031   0.00304   0.00275   2.31889
   A15        2.01639   0.01562  -0.00000   0.00000   0.00000   2.01639
   A16        1.95065  -0.00491   0.00031  -0.00307  -0.00280   1.94784
   A17        1.95716   0.00366  -0.00016   0.00329   0.00310   1.96026
   A18        2.15247  -0.00185  -0.00017  -0.00085  -0.00100   2.15147
   A19        2.17334  -0.00181   0.00032  -0.00255  -0.00222   2.17113
   A20        1.59262   0.00291  -0.00007   0.00101   0.00086   1.59347
   A21        1.97293  -0.00074   0.00064  -0.00473  -0.00414   1.96878
   A22        2.16038   0.00028  -0.00017   0.00126   0.00110   2.16148
   A23        2.14987   0.00045  -0.00047   0.00343   0.00296   2.15283
   A24        1.95138  -0.00093  -0.00074   0.00327   0.00246   1.95384
   A25        2.08992   0.00120   0.00008   0.00373   0.00382   2.09374
   A26        2.24189  -0.00028   0.00066  -0.00702  -0.00635   2.23554
    D1       -0.01662   0.00028   0.00048   0.01216   0.01264  -0.00397
    D2        3.13763   0.00018   0.00032   0.00700   0.00731  -3.13824
    D3        3.13572   0.00005   0.00006   0.00323   0.00330   3.13902
    D4        0.00678  -0.00004  -0.00010  -0.00193  -0.00203   0.00475
    D5        0.01759  -0.00037  -0.00066  -0.01643  -0.01709   0.00051
    D6       -3.13372  -0.00017  -0.00028  -0.00836  -0.00863   3.14083
    D7        0.00602   0.00000   0.00003   0.00048   0.00051   0.00653
    D8       -3.10738  -0.00010  -0.00026  -0.00507  -0.00533  -3.11271
    D9        3.13488   0.00010   0.00019   0.00568   0.00587   3.14075
   D10        0.02148  -0.00001  -0.00010   0.00013   0.00003   0.02151
   D11        0.00724  -0.00028  -0.00052  -0.01272  -0.01323  -0.00599
   D12       -3.13274  -0.00014  -0.00026  -0.00643  -0.00668  -3.13942
   D13        3.12103  -0.00018  -0.00023  -0.00725  -0.00747   3.11356
   D14       -0.01896  -0.00004   0.00003  -0.00096  -0.00092  -0.01988
   D15       -0.01402   0.00037   0.00066   0.01653   0.01720   0.00318
   D16        3.12612   0.00025   0.00043   0.01085   0.01129   3.13741
   D17        2.65115  -0.00010   0.00036  -0.00782  -0.00746   2.64369
   D18       -0.49527  -0.00023   0.00027  -0.01639  -0.01611  -0.51139
   D19       -0.48870   0.00005   0.00064  -0.00101  -0.00036  -0.48906
   D20        2.64806  -0.00009   0.00055  -0.00957  -0.00901   2.63905
   D21       -3.13892   0.00014   0.00031   0.00475   0.00506  -3.13386
   D22       -0.01864   0.00006   0.00003  -0.00032  -0.00030  -0.01894
   D23        0.00737   0.00022   0.00040   0.01307   0.01345   0.02082
   D24        3.12764   0.00015   0.00012   0.00800   0.00809   3.13573
   D25        3.13664  -0.00020  -0.00051  -0.01240  -0.01292   3.12372
   D26       -0.00878  -0.00034  -0.00058  -0.01917  -0.01973  -0.02850
   D27       -0.00138   0.00006   0.00007   0.00251   0.00255   0.00117
   D28        3.13536  -0.00009  -0.00021  -0.00647  -0.00669   3.12868
   D29       -3.12135   0.00013   0.00037   0.00762   0.00796  -3.11339
   D30        0.01539  -0.00001   0.00009  -0.00135  -0.00127   0.01412
   D31        0.00797   0.00040   0.00061   0.02059   0.02125   0.02921
   D32       -3.13626   0.00019   0.00037   0.01135   0.01170  -3.12456
   D33       -0.00530  -0.00033  -0.00051  -0.01706  -0.01757  -0.02287
   D34        3.13921  -0.00009  -0.00023  -0.00684  -0.00708   3.13212
   D35        3.14111  -0.00019  -0.00023  -0.00814  -0.00838   3.13273
   D36        0.00243   0.00005   0.00004   0.00208   0.00211   0.00454
         Item               Value     Threshold  Converged?
 Maximum Force            0.001604     0.000015     NO 
 RMS     Force            0.000331     0.000010     NO 
 Maximum Displacement     0.047353     0.000060     NO 
 RMS     Displacement     0.008213     0.000040     NO 
 Predicted change in Energy=-4.595426D-05
 GradGradGradGradGradGradGradGradGradGradGradGradGradGradGradGradGradGrad

                          Input orientation:                          
 ---------------------------------------------------------------------
 Center     Atomic      Atomic             Coordinates (Angstroms)
 Number     Number       Type             X           Y           Z
 ---------------------------------------------------------------------
      1          6           0       -0.561771   -0.160218   -0.056494
      2          6           0       -1.001502   -1.406714    0.271937
      3          6           0       -2.418873   -1.476688    0.383753
      4          6           0       -3.035026   -0.280796    0.129771
      5         16           0       -1.866515    0.946754   -0.241048
      6          1           0        0.453211    0.174930   -0.202683
      7          1           0       -0.341070   -2.246716    0.435929
      8          1           0       -2.961880   -2.370446    0.661179
      9          6           0       -4.457786    0.036724    0.148876
     10          6           0       -5.149435    1.185163    0.405198
     11         16           0       -5.523530   -1.277488   -0.244296
     12          6           0       -6.561201    1.000037    0.310386
     13          1           0       -4.672183    2.117662    0.674653
     14          6           0       -6.905582   -0.277698   -0.012391
     15          1           0       -7.284717    1.783817    0.488437
     16          1           0       -7.895080   -0.688477   -0.138883
 ---------------------------------------------------------------------
                    Distance matrix (angstroms):
                    1          2          3          4          5
     1  C    0.000000
[...]
           D15         -1.02815
           D16        179.31178
           D17        151.94017
           D18        -27.95809
           D19        -28.46637
           D20        151.63537
           D21       -179.65622
           D22         -1.14353
           D23          0.25576
           D24        178.76846
           D25        179.39652
           D26         -0.51450
           D27          0.23820
           D28        179.59002
           D29       -178.24973
           D30          1.10209
           D31          0.66161
           D32       -179.47280
           D33         -0.62717
           D34        179.52272
           D35       -179.98383
           D36          0.16606
 GradGradGradGradGradGradGradGradGradGradGradGradGradGradGradGradGradGrad

                          Input orientation:                          
 ---------------------------------------------------------------------
 Center     Atomic      Atomic             Coordinates (Angstroms)
 Number     Number       Type             X           Y           Z
 ---------------------------------------------------------------------
      1          6           0       -0.595490   -0.088010   -0.027462
      2          6           0       -0.963461   -1.358927    0.294484
      3          6           0       -2.376576   -1.514676    0.370716
      4          6           0       -3.058627   -0.357099    0.108052
      5         16           0       -1.961236    0.934316   -0.260340
      6          1           0        0.399561    0.311985   -0.145030
      7          1           0       -0.255358   -2.154502    0.479711
      8          1           0       -2.874353   -2.439468    0.631409
      9          6           0       -4.496052   -0.132172    0.102267
     10          6           0       -5.099344    1.072267    0.373373
     11         16           0       -5.701386   -1.329092   -0.241425
     12          6           0       -6.517901    1.029684    0.310510
     13          1           0       -4.534249    1.957588    0.634401
     14          6           0       -6.983630   -0.210342   -0.003427
     15          1           0       -7.159873    1.878399    0.500113
     16          1           0       -8.004963   -0.540105   -0.113027
 ---------------------------------------------------------------------
                    Distance matrix (angstroms):
                    1          2          3          4          5
     1  C    0.000000
     2  C    1.361720   0.000000
     3  C    2.316503   1.423715   0.000000
     4  C    2.481494   2.329836   1.369003   0.000000
     5  S    1.721814   2.561708   2.562870   1.734281   0.000000
     6  H    1.078863   2.200670   3.362978   3.531400   2.444167
     7  H    2.154833   1.081045   2.218293   3.350687   3.605343
     8  H    3.340161   2.220945   1.082119   2.155021   3.607134
     9  C    3.902969   3.744473   2.544713   1.454929   2.773837
    10  C    4.668149   4.798173   3.755762   2.505596   3.204426
    11  S    5.258919   4.768230   3.385782   2.837442   4.371737
    12  C    6.036423   6.046282   4.860860   3.732390   4.593273
    13  H    4.487355   4.885217   4.096547   2.795046   2.909990
    14  C    6.389356   6.135995   4.802730   3.929328   5.157585
    15  H    6.872861   6.994146   5.865972   4.687364   5.338108
    16  H    7.423746   7.100654   5.732586   4.954656   6.222721
                    6          7          8          9         10
     6  H    0.000000
     7  H    2.627315   0.000000
     8  H    4.346477   2.638817   0.000000
     9  C    4.921937   4.713362   2.869410   0.000000
    10  C    5.575368   5.821302   4.165267   1.374094   0.000000
    11  S    6.318542   5.555228   3.160203   1.733081   2.550873
    12  C    6.969496   7.027597   5.041173   2.341184   1.420587
    13  H    5.259087   5.936508   4.699932   2.156785   1.082248
    14  C    7.402998   7.020173   4.717857   2.491049   2.310324
    15  H    7.746928   7.996064   6.084972   3.361044   2.216233
    16  H    8.447669   7.938136   5.521315   3.539098   3.358415
                   11         12         13         14         15
    11  S    0.000000
    12  C    2.556394   0.000000
    13  H    3.596045   2.213771   0.000000
    14  C    1.718253   1.361295   3.332598   0.000000
    15  H    3.600702   1.080923   2.630248   2.155795   0.000000
    16  H    2.438330   2.203401   4.340850   1.078832   2.634252
                   16
    16  H    0.000000
 Stoichiometry    C8H6S2
 Framework group  C1[X(C8H6S2)]
 Deg. of freedom    42
 Full point group                 C1      NOp   1
 Largest Abelian subgroup         C1      NOp   1
 Largest concise Abelian subgroup C1      NOp   1
                         Standard orientation:                         
 ---------------------------------------------------------------------
 Center     Atomic      Atomic             Coordinates (Angstroms)
 Number     Number       Type             X           Y           Z
 ---------------------------------------------------------------------
      1          6           0       -3.187921   -0.164057   -0.059039
      2          6           0       -2.842762    1.114357    0.258457
      3          6           0       -1.432621    1.296090    0.332215
      4          6           0       -0.729923    0.150332    0.072171
      5         16           0       -1.804068   -1.162025   -0.290680
      6          1           0       -4.175667   -0.582499   -0.173968
      7          1           0       -3.565010    1.897459    0.442220
      8          1           0       -0.951446    2.230615    0.589345
      9          6           0        0.711358   -0.048358    0.065055
     10          6           0        1.336888   -1.240742    0.339034
     11         16           0        1.894190    1.169270   -0.284033
     12          6           0        2.754345   -1.172489    0.274041
     13          1           0        0.788392   -2.135404    0.603595
     14          6           0        3.196950    0.074840   -0.044385
     15          1           0        3.411950   -2.008759    0.465362
     16          1           0        4.211949    0.422833   -0.156443
 ---------------------------------------------------------------------
 Rotational constants (GHZ):           2.7144174           0.6456232           0.5337257

 **********************************************************************

            Population analysis using the SCF Density.

 **********************************************************************

 Orbital symmetries:
       Occupied  (A) (A) (A) (A) (A) (A) (A) (A) (A) (A) (A) (A)
                 (A) (A) (A) (A) (A) (A) (A) (A) (A) (A) (A) (A)
                 (A) (A) (A) (A) (A) (A) (A) (A) (A) (A) (A) (A)
                 (A) (A) (A) (A) (A) (A) (A)
       Virtual   (A) (A) (A) (A) (A) (A) (A) (A) (A) (A) (A) (A)
                 (A) (A) (A) (A) (A) (A) (A) (A) (A) (A) (A) (A)
                 (A) (A) (A) (A) (A) (A) (A) (A) (A) (A) (A) (A)
                 (A) (A) (A) (A) (A) (A) (A) (A) (A) (A) (A) (A)
                 (A) (A) (A) (A) (A) (A) (A) (A) (A) (A) (A) (A)
                 (A) (A) (A) (A) (A) (A) (A) (A) (A) (A) (A) (A)
                 (A) (A) (A) (A) (A) (A) (A) (A) (A) (A) (A) (A)
                 (A) (A) (A) (A) (A) (A) (A) (A) (A) (A) (A) (A)
                 (A) (A) (A) (A) (A) (A) (A) (A) (A) (A) (A) (A)
                 (A) (A) (A) (A) (A) (A) (A) (A) (A) (A) (A) (A)
                 (A) (A) (A) (A) (A) (A) (A) (A) (A) (A) (A) (A)
                 (A) (A) (A) (A) (A) (A) (A) (A) (A) (A) (A) (A)
                 (A) (A) (A) (A) (A) (A) (A) (A) (A) (A) (A) (A)
                 (A) (A) (A) (A) (A) (A) (A) (A) (A) (A) (A) (A)
                 (A) (A) (A) (A) (A) (A) (A) (A) (A) (A) (A) (A)
                 (A) (A) (A) (A) (A) (A) (A) (A) (A) (A) (A) (A)
                 (A) (A) (A) (A) (A) (A) (A) (A) (A) (A) (A) (A)
                 (A) (A) (A) (A) (A) (A) (A) (A) (A) (A) (A) (A)
                 (A) (A) (A) (A) (A) (A) (A) (A) (A) (A) (A) (A)
                 (A)
 The electronic state is 1-A.
 Alpha  occ. eigenvalues --  -89.93059 -89.92919 -10.58823 -10.58770 -10.57427
 Alpha  occ. eigenvalues --  -10.57386 -10.55083 -10.55043 -10.54994 -10.54911
 Alpha  occ. eigenvalues --   -8.29613  -8.29485  -6.21685  -6.21556  -6.21468
 Alpha  occ. eigenvalues --   -6.21339  -6.21250  -6.21117  -1.00635  -0.98237
 Alpha  occ. eigenvalues --   -0.86742  -0.83958  -0.82688  -0.79559  -0.68154
 Alpha  occ. eigenvalues --   -0.65740  -0.62663  -0.60771  -0.60147  -0.54656
 Alpha  occ. eigenvalues --   -0.48193  -0.48099  -0.47810  -0.46494  -0.45689
 Alpha  occ. eigenvalues --   -0.44429  -0.43551  -0.41309  -0.40020  -0.33490
 Alpha  occ. eigenvalues --   -0.31328  -0.30983  -0.26303
 Alpha virt. eigenvalues --   -0.02201   0.01000   0.01490   0.02553   0.02926
 Alpha virt. eigenvalues --    0.03178   0.03595   0.04242   0.04411   0.04701
 Alpha virt. eigenvalues --    0.05640   0.06209   0.06572   0.06777   0.07456
 Alpha virt. eigenvalues --    0.08056   0.08981   0.09229   0.10048   0.10135
 Alpha virt. eigenvalues --    0.10865   0.11549   0.12514   0.13519   0.13700
 Alpha virt. eigenvalues --    0.14238   0.14656   0.14810   0.15947   0.16410
 Alpha virt. eigenvalues --    0.16866   0.17198   0.18088   0.18186   0.18349
 Alpha virt. eigenvalues --    0.18893   0.19772   0.19855   0.20623   0.20856
 Alpha virt. eigenvalues --    0.21327   0.21695   0.21753   0.22190   0.23491
 Alpha virt. eigenvalues --    0.23720   0.24619   0.25109   0.26118   0.27104
 Alpha virt. eigenvalues --    0.27364   0.27971   0.28356   0.29354   0.30654
 Alpha virt. eigenvalues --    0.31617   0.35058   0.35996   0.36602   0.36762
 Alpha virt. eigenvalues --    0.38502   0.39949   0.43119   0.43999   0.45743
 Alpha virt. eigenvalues --    0.46358   0.48359   0.51191   0.53861   0.55276
 Alpha virt. eigenvalues --    0.56441   0.57812   0.58245   0.58566   0.59045
 Alpha virt. eigenvalues --    0.61190   0.63053   0.63292   0.64746   0.65303
 Alpha virt. eigenvalues --    0.66638   0.67930   0.70090   0.70879   0.74272
 Alpha virt. eigenvalues --    0.74598   0.74977   0.75317   0.77400   0.78731
 Alpha virt. eigenvalues --    0.78955   0.79608   0.79882   0.81311   0.82139
 Alpha virt. eigenvalues --    0.83324   0.83855   0.84498   0.85794   0.86201
 Alpha virt. eigenvalues --    0.87662   0.89204   0.90570   0.91517   0.93259
 Alpha virt. eigenvalues --    0.96127   0.96662   0.97084   1.01070   1.01935
 Alpha virt. eigenvalues --    1.02366   1.05132   1.05707   1.06900   1.08595
 Alpha virt. eigenvalues --    1.08999   1.13517   1.13728   1.14993   1.17109
 Alpha virt. eigenvalues --    1.22429   1.27415   1.28923   1.37828   1.40552
 Alpha virt. eigenvalues --    1.40907   1.45657   1.49082   1.57615   1.57714
 Alpha virt. eigenvalues --    1.59102   1.59216   1.60032   1.62210   1.62318
 Alpha virt. eigenvalues --    1.63499   1.68365   1.68742   1.71808   1.72508
 Alpha virt. eigenvalues --    1.74655   1.76114   1.76924   1.77898   1.78503
 Alpha virt. eigenvalues --    1.82028   1.82995   1.84816   1.86503   1.90887
 Alpha virt. eigenvalues --    1.92021   1.93626   1.95458   1.98432   1.99292
 Alpha virt. eigenvalues --    1.99931   2.02863   2.04009   2.06435   2.07644
 Alpha virt. eigenvalues --    2.11303   2.12761   2.14602   2.16895   2.17270
 Alpha virt. eigenvalues --    2.19198   2.25172   2.29896   2.31462   2.38522
 Alpha virt. eigenvalues --    2.41840   2.45710   2.46917   2.50093   2.56423
 Alpha virt. eigenvalues --    2.67078   2.68841   2.72425   2.73894   2.74459
 Alpha virt. eigenvalues --    2.74976   2.76829   2.77130   2.77656   2.78601
 Alpha virt. eigenvalues --    2.79590   2.80475   2.82905   2.87241   2.92280
 Alpha virt. eigenvalues --    2.98399   3.04707   3.06584   3.18730   3.19835
 Alpha virt. eigenvalues --    3.23784   3.27106   3.33402   3.34236   3.40070
 Alpha virt. eigenvalues --    3.41613   3.43944   3.57241   3.57924   3.67222
 Alpha virt. eigenvalues --    3.89648   4.07128   4.07570   4.20188   4.31259
 Alpha virt. eigenvalues --    4.54051   8.13738   8.14856  17.47295  17.48450
 Alpha virt. eigenvalues --   17.66293  17.66715  17.70076  17.71160  23.62125
 Alpha virt. eigenvalues --   23.81356  23.89509  23.93568  24.16587  24.19898
 Alpha virt. eigenvalues --   24.24065  24.24609 189.43303 189.44609
          Condensed to atoms (all electrons):
               1          2          3          4          5          6
     1  C    5.883924   0.066564   1.090991  -0.522109  -0.223299   0.334173
     2  C    0.066564   6.857267  -1.365842   1.758561   0.536045   0.048868
     3  C    1.090991  -1.365842  11.120981  -4.273692  -2.146027  -0.050734
     4  C   -0.522109   1.758561  -4.273692  28.490298   1.030569   0.035959
     5  S   -0.223299   0.536045  -2.146027   1.030569  16.939611  -0.022668
     6  H    0.334173   0.048868  -0.050734   0.035959  -0.022668   0.453212
     7  H   -0.001784   0.345782  -0.025649   0.006541   0.004943  -0.004346
     8  H   -0.034831   0.021800   0.212822   0.019890   0.019241  -0.000054
     9  C   -0.516987  -1.666727   1.343280 -20.135130   0.074338   0.018258
    10  C   -0.212770   0.154148  -0.739916   2.083972   0.205435   0.000754
    11  S    0.064545  -0.063340   0.144495  -0.416679   0.027219  -0.000469
    12  C   -0.002254  -0.041040   0.124127  -1.470874  -0.093223  -0.000010
    13  H    0.004199  -0.001947  -0.009518   0.093628   0.008950   0.000001
    14  C   -0.029141  -0.006703  -0.189133  -0.718306   0.068811   0.000041
    15  H    0.000078   0.000029   0.000013   0.017925   0.000608  -0.000000
    16  H    0.000040   0.000051   0.001045   0.021702  -0.000585   0.000000
               7          8          9         10         11         12
     1  C   -0.001784  -0.034831  -0.516987  -0.212770   0.064545  -0.002254
     2  C    0.345782   0.021800  -1.666727   0.154148  -0.063340  -0.041040
     3  C   -0.025649   0.212822   1.343280  -0.739916   0.144495   0.124127
     4  C    0.006541   0.019890 -20.135130   2.083972  -0.416679  -1.470874
     5  S    0.004943   0.019241   0.074338   0.205435   0.027219  -0.093223
     6  H   -0.004346  -0.000054   0.018258   0.000754  -0.000469  -0.000010
     7  H    0.492449  -0.003636   0.019885   0.000650   0.000213   0.000020
     8  H   -0.003636   0.487690   0.103251  -0.001181   0.003921  -0.002535
     9  C    0.019885   0.103251  28.188069  -3.597056   1.111393   1.577369
    10  C    0.000650  -0.001181  -3.597056   9.961527  -1.799144  -1.659037
    11  S    0.000213   0.003921   1.111393  -1.799144  16.923699   0.486278
    12  C    0.000020  -0.002535   1.577369  -1.659037   0.486278   7.207674
    13  H    0.000001   0.000049   0.013952   0.231281   0.016903   0.020849
    14  C    0.000091   0.003834  -0.081804   0.781452  -0.086796   0.100865
    15  H    0.000000   0.000000  -0.002841  -0.014069   0.004224   0.342205
    16  H   -0.000000  -0.000001   0.032632  -0.046740  -0.026717   0.048538
              13         14         15         16
     1  C    0.004199  -0.029141   0.000078   0.000040
     2  C   -0.001947  -0.006703   0.000029   0.000051
     3  C   -0.009518  -0.189133   0.000013   0.001045
     4  C    0.093628  -0.718306   0.017925   0.021702
     5  S    0.008950   0.068811   0.000608  -0.000585
     6  H    0.000001   0.000041  -0.000000   0.000000
     7  H    0.000001   0.000091   0.000000  -0.000000
     8  H    0.000049   0.003834   0.000000  -0.000001
     9  C    0.013952  -0.081804  -0.002841   0.032632
    10  C    0.231281   0.781452  -0.014069  -0.046740
    11  S    0.016903  -0.086796   0.004224  -0.026717
    12  C    0.020849   0.100865   0.342205   0.048538
    13  H    0.488994  -0.032892  -0.003766  -0.000077
    14  C   -0.032892   5.804534   0.002975   0.333295
    15  H   -0.003766   0.002975   0.492243  -0.004307
    16  H   -0.000077   0.333295  -0.004307   0.451472
 Mulliken charges:
               1
     1  C    0.098660
     2  C   -0.643515
     3  C    0.762760
     4  C   -0.022256
     5  S   -0.429966
     6  H    0.187015
     7  H    0.164841
     8  H    0.169741
     9  C   -0.481882
    10  C    0.650696
    11  S   -0.389746
    12  C   -0.638954
    13  H    0.169394
    14  C    0.048876
    15  H    0.164682
    16  H    0.189653
 Sum of Mulliken charges =  -0.00000
 Mulliken charges with hydrogens summed into heavy atoms:
               1
     1  C    0.285675
     2  C   -0.478674
     3  C    0.932501
     4  C   -0.022256
     5  S   -0.429966
     9  C   -0.481882
    10  C    0.820090
    11  S   -0.389746
    12  C   -0.474271
    14  C    0.238529
 Electronic spatial extent (au):  <R**2>=           2006.2266
 Charge=             -0.0000 electrons
 Dipole moment (field-independent basis, Debye):
    X=             -0.0043    Y=             -0.0330    Z=              0.3021  Tot=              0.3040
 Quadrupole moment (field-independent basis, Debye-Ang):
   XX=            -60.1495   YY=            -68.1841   ZZ=            -78.4195
   XY=             -1.3541   XZ=             -0.0389   YZ=              0.0135
 Traceless Quadrupole moment (field-independent basis, Debye-Ang):
   XX=              8.7682   YY=              0.7336   ZZ=             -9.5018
   XY=             -1.3541   XZ=             -0.0389   YZ=              0.0135
 Octapole moment (field-independent basis, Debye-Ang**2):
  XXX=              0.8671  YYY=             -0.1839  ZZZ=             -2.7563  XYY=             -0.7029
  XXY=             -0.8508  XXZ=             -2.2197  XZZ=              0.1793  YZZ=             -0.0476
  YYZ=              4.6235  XYZ=             -6.6327
 Hexadecapole moment (field-independent basis, Debye-Ang**3):
 XXXX=          -1842.0925 YYYY=           -529.4871 ZZZZ=           -131.9190 XXXY=             21.4267
 XXXZ=             -1.2652 YYYX=            -17.4993 YYYZ=              0.1551 ZZZX=             -0.0972
 ZZZY=              0.0048 XXYY=           -412.1051 XXZZ=           -420.9815 YYZZ=           -118.3520
 XXYZ=              0.8220 YYXZ=              0.3777 ZZXY=              6.2118
 N-N= 6.325840503196D+02 E-N=-3.874307183391D+03  KE= 1.102609921786D+03
 Unable to Open any file for archive entry.
 1\1\GINC-SCOUT-4-16\Scan\RM062X\6-311+G(d,p)\C8H6S2\MMH568\15-Jan-2021
 \0\\# m062x/6-311+g** opt=(tight,modredundant)\\Title Card Required\\0
 ,1\C,-0.5954904563,-0.088010269,-0.0274619248\C,-0.9634608049,-1.35892
 71634,0.294484201\C,-2.3765760833,-1.5146759954,0.3707160204\C,-3.0586
 267285,-0.3570990736,0.1080521186\S,-1.961236437,0.9343157902,-0.26034
 04911\H,0.3995606153,0.311985425,-0.1450302437\H,-0.2553576849,-2.1545
 024336,0.4797108035\H,-2.8743533025,-2.4394675088,0.6314085249\C,-4.49
 60524992,-0.1321716321,0.1022665954\C,-5.0993444795,1.0722673737,0.373
 3728176\S,-5.7013857423,-1.329091643,-0.2414245858\C,-6.51790066,1.029
 6838676,0.3105102678\H,-4.5342493036,1.9575877342,0.6344012575\C,-6.98
 36300317,-0.2103420157,-0.0034272053\H,-7.1598727095,1.8783988795,0.50
 01128992\H,-8.004963392,-0.5401051759,-0.1130274253\\Version=ES64L-G16
 RevC.01\State=1-A\HF=-1104.7553258,-1104.7557338,-1104.7560504,-1104.7
 56276,-1104.7564111,-1104.7564563,-1104.7564123,-1104.7562802,-1104.75
 60612,-1104.755756,-1104.7553658\RMSD=9.788e-09,8.291e-09,6.643e-09,1.
 478e-09,2.711e-09,3.366e-09,9.864e-09,5.582e-09,7.098e-09,3.781e-09,3.
 509e-09\PG=C01 [X(C8H6S2)]\\@
 The archive entry for this job was punched.


 I FIND THAT THE THREE TRULY GREAT TIMES FOR THINKING THOUGHTS
 ARE WHEN I AM STANDING IN THE SHOWER, SITTING ON THE JOHN, OR WALKING.

                                    -- COLIN FLETCHER
 Job cpu time:       0 days  7 hours 50 minutes 28.4 seconds.
 Elapsed time:       0 days  0 hours 31 minutes 35.2 seconds.
 File lengths (MBytes):  RWF=     51 Int=      0 D2E=      0 Chk=      7 Scr=      1
 Normal termination of Gaussian 16 at Fri Jan 15 00:19:34 2021.
