 Set GAUSS_CDEF to "0-15".
 Set GAUSS_WDEF to "Scout-4-17".
 Entering Gaussian System, Link 0=g16
 Initial command:
 /apps/pgi-2020-20.4/gaussian16-C.01/g16/l1.exe "/work/mmh568/Gau_scratch/Gau-34220.inp" -scrdir="/work/mmh568/Gau_scratch/"
 Default CPUs for threads: 0-15
 Default linda workers: Scout-4-17
 Default is to use  16 SMP processors on each worker.
 Entering Link 1 = /apps/pgi-2020-20.4/gaussian16-C.01/g16/l1.exe PID=     34222.
  
 Copyright (c) 1988-2019, Gaussian, Inc.  All Rights Reserved.
  
 This is part of the Gaussian(R) 16 program.  It is based on
 the Gaussian(R) 09 system (copyright 2009, Gaussian, Inc.),
 the Gaussian(R) 03 system (copyright 2003, Gaussian, Inc.),
 the Gaussian(R) 98 system (copyright 1998, Gaussian, Inc.),
 the Gaussian(R) 94 system (copyright 1995, Gaussian, Inc.),
 the Gaussian 92(TM) system (copyright 1992, Gaussian, Inc.),
 the Gaussian 90(TM) system (copyright 1990, Gaussian, Inc.),
 the Gaussian 88(TM) system (copyright 1988, Gaussian, Inc.),
 the Gaussian 86(TM) system (copyright 1986, Carnegie Mellon
 University), and the Gaussian 82(TM) system (copyright 1983,
 Carnegie Mellon University). Gaussian is a federally registered
 trademark of Gaussian, Inc.
  
 This software contains proprietary and confidential information,
 including trade secrets, belonging to Gaussian, Inc.
  
 This software is provided under written license and may be
 used, copied, transmitted, or stored only in accord with that
 written license.
  
 The following legend is applicable only to US Government
 contracts under FAR:
  
                    RESTRICTED RIGHTS LEGEND
  
 Use, reproduction and disclosure by the US Government is
 subject to restrictions as set forth in subparagraphs (a)
 and (c) of the Commercial Computer Software - Restricted
 Rights clause in FAR 52.227-19.
  
 Gaussian, Inc.
 340 Quinnipiac St., Bldg. 40, Wallingford CT 06492
  
  
 ---------------------------------------------------------------
 Warning -- This program may not be used in any manner that
 competes with the business of Gaussian, Inc. or will provide
 assistance to any competitor of Gaussian, Inc.  The licensee
 of this program is prohibited from giving any competitor of
 Gaussian, Inc. access to this program.  By using this program,
 the user acknowledges that Gaussian, Inc. is engaged in the
 business of creating and licensing software in the field of
 computational chemistry and represents and warrants to the
 licensee that it is not a competitor of Gaussian, Inc. and that
 it will not use this program in any manner prohibited above.
 ---------------------------------------------------------------
  

 Cite this work as:
 Gaussian 16, Revision C.01,
 M. J. Frisch, G. W. Trucks, H. B. Schlegel, G. E. Scuseria, 
 M. A. Robb, J. R. Cheeseman, G. Scalmani, V. Barone, 
 G. A. Petersson, H. Nakatsuji, X. Li, M. Caricato, A. V. Marenich, 
 J. Bloino, B. G. Janesko, R. Gomperts, B. Mennucci, H. P. Hratchian, 
 J. V. Ortiz, A. F. Izmaylov, J. L. Sonnenberg, D. Williams-Young, 
 F. Ding, F. Lipparini, F. Egidi, J. Goings, B. Peng, A. Petrone, 
 T. Henderson, D. Ranasinghe, V. G. Zakrzewski, J. Gao, N. Rega, 
 G. Zheng, W. Liang, M. Hada, M. Ehara, K. Toyota, R. Fukuda, 
 J. Hasegawa, M. Ishida, T. Nakajima, Y. Honda, O. Kitao, H. Nakai, 
 T. Vreven, K. Throssell, J. A. Montgomery, Jr., J. E. Peralta, 
 F. Ogliaro, M. J. Bearpark, J. J. Heyd, E. N. Brothers, K. N. Kudin, 
 V. N. Staroverov, T. A. Keith, R. Kobayashi, J. Normand, 
 K. Raghavachari, A. P. Rendell, J. C. Burant, S. S. Iyengar, 
 J. Tomasi, M. Cossi, J. M. Millam, M. Klene, C. Adamo, R. Cammi, 
 J. W. Ochterski, R. L. Martin, K. Morokuma, O. Farkas, 
 J. B. Foresman, and D. J. Fox, Gaussian, Inc., Wallingford CT, 2019.
 
 ******************************************
 Gaussian 16:  ES64L-G16RevC.01  3-Jul-2019
                14-Jan-2021 
 ******************************************
 %mem=8GB
 %nprocshared=16
 Will use up to   16 processors via shared memory.
 SetLPE:    new flags="-opt 'Tsnet.Node.lindarsharg: ssh'  -nodelist 'scout-4-17.hpc.msstate.edu' -env GAUSS_MDEF=1073741824 -env GAUSS_EXEDIR="/apps/pgi-2020-20.4/gaussian16-C.01/g16/bsd:/apps/pgi-2020-20.4/gaussian16-C.01/g16" -env "MP_BIND=yes" -env "MP_BLIST=0,1,2,3,4,5,6,7,8,9,10,11,12,13,14,15" -env GAUSS_ADEF="0,1,2,3,4,5,6,7,8,9,10,11,12,13,14,15""
 Will use up to    1 processors via Linda.
 ------------------------------------------
 # m062x/6-311+g** opt=(tight,modredundant)
 ------------------------------------------
 1/7=10,18=120,19=15,26=3,38=1/1,3;
 2/9=110,12=2,17=6,18=5,40=1/2;
 3/5=4,6=6,7=111,11=2,25=1,30=1,71=1,74=-55/1,2,3;
 4//1;
 5/5=2,38=5/2;
 6/7=2,8=2,9=2,10=2,28=1/1;
 7//1,2,3,16;
 1/7=10,18=20,19=15,26=3/3(2);
 2/9=110/2;
 99//99;
 2/9=110/2;
 3/5=4,6=6,7=111,11=2,25=1,30=1,71=1,74=-55/1,2,3;
 4/5=5,16=3,69=1/1;
 5/5=2,38=5/2;
 7//1,2,3,16;
 1/7=10,18=20,19=15,26=3/3(-5);
 2/9=110/2;
 6/7=2,8=2,9=2,10=2,19=2,28=1/1;
 99/9=1/99;
 -------------------
 Title Card Required
 -------------------
 Symbolic Z-matrix:
 Charge =  0 Multiplicity = 1
 C                     3.18272   0.13938  -0.06119 
 C                     2.80752  -1.13254   0.24873 
 C                     1.39403  -1.28108   0.33075 
 C                     0.71802  -0.11764   0.07854 
 S                     1.82215   1.17217  -0.27569 
 H                     4.17994   0.5332   -0.18095 
 H                     3.51103  -1.93488   0.42191 
 H                     0.89374  -2.20544   0.5881 
 C                    -0.71802   0.11764   0.07856 
 C                    -1.39402   1.28107   0.3308 
 S                    -1.82216  -1.17216  -0.27567 
 C                    -2.80752   1.13254   0.24882 
 H                    -0.89373   2.20542   0.58817 
 C                    -3.18272  -0.13938  -0.06112 
 H                    -3.51102   1.93487   0.42203 
 H                    -4.17995  -0.5332   -0.18086 
 
 The following ModRedundant input section has been read:
 D       5       4       9      11 S  36 10.000                                
 

 GradGradGradGradGradGradGradGradGradGradGradGradGradGradGradGradGradGrad
 Berny optimization.
 Initialization pass.
                           ----------------------------
                           !    Initial Parameters    !
                           ! (Angstroms and Degrees)  !
 --------------------------                            --------------------------
 ! Name  Definition              Value          Derivative Info.                !
 --------------------------------------------------------------------------------
 ! R1    R(1,2)                  1.3618         estimate D2E/DX2                !
 ! R2    R(1,5)                  1.7216         estimate D2E/DX2                !
 ! R3    R(1,6)                  1.0788         estimate D2E/DX2                !
 ! R4    R(2,3)                  1.4236         estimate D2E/DX2                !
 ! R5    R(2,7)                  1.081          estimate D2E/DX2                !
 ! R6    R(3,4)                  1.369          estimate D2E/DX2                !
 ! R7    R(3,8)                  1.0821         estimate D2E/DX2                !
 ! R8    R(4,5)                  1.7344         estimate D2E/DX2                !
 ! R9    R(4,9)                  1.4552         estimate D2E/DX2                !
 ! R10   R(9,10)                 1.369          estimate D2E/DX2                !
 ! R11   R(9,11)                 1.7344         estimate D2E/DX2                !
 ! R12   R(10,12)                1.4236         estimate D2E/DX2                !
 ! R13   R(10,13)                1.0821         estimate D2E/DX2                !
 ! R14   R(11,14)                1.7216         estimate D2E/DX2                !
 ! R15   R(12,14)                1.3618         estimate D2E/DX2                !
 ! R16   R(12,15)                1.081          estimate D2E/DX2                !
 ! R17   R(14,16)                1.0788         estimate D2E/DX2                !
 ! A1    A(2,1,5)              111.7725         estimate D2E/DX2                !
 ! A2    A(2,1,6)              128.3795         estimate D2E/DX2                !
 ! A3    A(5,1,6)              119.8474         estimate D2E/DX2                !
 ! A4    A(1,2,3)              112.5877         estimate D2E/DX2                !
 ! A5    A(1,2,7)              123.3908         estimate D2E/DX2                !
 ! A6    A(3,2,7)              124.0189         estimate D2E/DX2                !
 ! A7    A(2,3,4)              113.0165         estimate D2E/DX2                !
 ! A8    A(2,3,8)              124.1844         estimate D2E/DX2                !
 ! A9    A(4,3,8)              122.7836         estimate D2E/DX2                !
 ! A10   A(3,4,5)              110.8094         estimate D2E/DX2                !
 ! A11   A(3,4,9)              128.6599         estimate D2E/DX2                !
 ! A12   A(5,4,9)              120.5306         estimate D2E/DX2                !
 ! A13   A(1,5,4)               91.8073         estimate D2E/DX2                !
 ! A14   A(4,9,10)             128.6599         estimate D2E/DX2                !
 ! A15   A(4,9,11)             120.5307         estimate D2E/DX2                !
 ! A16   A(10,9,11)            110.8094         estimate D2E/DX2                !
 ! A17   A(9,10,12)            113.0165         estimate D2E/DX2                !
 ! A18   A(9,10,13)            122.7837         estimate D2E/DX2                !
 ! A19   A(12,10,13)           124.1843         estimate D2E/DX2                !
 ! A20   A(9,11,14)             91.8074         estimate D2E/DX2                !
 ! A21   A(10,12,14)           112.5877         estimate D2E/DX2                !
 ! A22   A(10,12,15)           124.0189         estimate D2E/DX2                !
 ! A23   A(14,12,15)           123.3909         estimate D2E/DX2                !
 ! A24   A(11,14,12)           111.7725         estimate D2E/DX2                !
 ! A25   A(11,14,16)           119.8475         estimate D2E/DX2                !
 ! A26   A(12,14,16)           128.3795         estimate D2E/DX2                !
 ! D1    D(5,1,2,3)             -0.6473         estimate D2E/DX2                !
 ! D2    D(5,1,2,7)            179.9168         estimate D2E/DX2                !
 ! D3    D(6,1,2,3)            179.6256         estimate D2E/DX2                !
 ! D4    D(6,1,2,7)              0.1897         estimate D2E/DX2                !
 ! D5    D(2,1,5,4)              0.7654         estimate D2E/DX2                !
 ! D6    D(6,1,5,4)           -179.4812         estimate D2E/DX2                !
 ! D7    D(1,2,3,4)              0.1247         estimate D2E/DX2                !
 ! D8    D(1,2,3,8)           -178.4733         estimate D2E/DX2                !
 ! D9    D(7,2,3,4)            179.5565         estimate D2E/DX2                !
 ! D10   D(7,2,3,8)              0.9585         estimate D2E/DX2                !
 ! D11   D(2,3,4,5)              0.449          estimate D2E/DX2                !
 ! D12   D(2,3,4,9)           -179.6143         estimate D2E/DX2                !
 ! D13   D(8,3,4,5)            179.0695         estimate D2E/DX2                !
 ! D14   D(8,3,4,9)             -0.9938         estimate D2E/DX2                !
 ! D15   D(3,4,5,1)             -0.687          estimate D2E/DX2                !
 ! D16   D(9,4,5,1)            179.3705         estimate D2E/DX2                !
 ! D17   D(3,4,9,10)           152.7056         estimate D2E/DX2                !
 ! D18   D(3,4,9,11)           -27.3632         estimate D2E/DX2                !
 ! D19   D(5,4,9,10)           -27.3631         estimate D2E/DX2                !
 ! D20   D(5,4,9,11)           152.568          Scan                            !
 ! D21   D(4,9,10,12)         -179.6142         estimate D2E/DX2                !
 ! D22   D(4,9,10,13)           -0.9939         estimate D2E/DX2                !
 ! D23   D(11,9,10,12)           0.4492         estimate D2E/DX2                !
 ! D24   D(11,9,10,13)         179.0695         estimate D2E/DX2                !
 ! D25   D(4,9,11,14)          179.3705         estimate D2E/DX2                !
 ! D26   D(10,9,11,14)          -0.6871         estimate D2E/DX2                !
 ! D27   D(9,10,12,14)           0.1244         estimate D2E/DX2                !
 ! D28   D(9,10,12,15)         179.5564         estimate D2E/DX2                !
 ! D29   D(13,10,12,14)       -178.4734         estimate D2E/DX2                !
 ! D30   D(13,10,12,15)          0.9586         estimate D2E/DX2                !
 ! D31   D(9,11,14,12)           0.7654         estimate D2E/DX2                !
 ! D32   D(9,11,14,16)        -179.4811         estimate D2E/DX2                !
 ! D33   D(10,12,14,11)         -0.6471         estimate D2E/DX2                !
 ! D34   D(10,12,14,16)        179.6256         estimate D2E/DX2                !
 ! D35   D(15,12,14,11)        179.9168         estimate D2E/DX2                !
 ! D36   D(15,12,14,16)          0.1895         estimate D2E/DX2                !
 --------------------------------------------------------------------------------
 Trust Radius=3.00D-01 FncErr=1.00D-07 GrdErr=1.00D-06 EigMax=2.50D+02 EigMin=1.00D-04
 Number of optimizations in scan=  37
 Number of steps in this run=     89 maximum allowed number of steps=    100.
 GradGradGradGradGradGradGradGradGradGradGradGradGradGradGradGradGradGrad

                          Input orientation:                          
 ---------------------------------------------------------------------
 Center     Atomic      Atomic             Coordinates (Angstroms)
 Number     Number       Type             X           Y           Z
 ---------------------------------------------------------------------
      1          6           0        3.182717    0.139377   -0.061188
      2          6           0        2.807522   -1.132544    0.248731
      3          6           0        1.394030   -1.281076    0.330745
      4          6           0        0.718020   -0.117637    0.078539
      5         16           0        1.822154    1.172165   -0.275688
      6          1           0        4.179943    0.533202   -0.180946
      7          1           0        3.511029   -1.934878    0.421906
      8          1           0        0.893739   -2.205436    0.588097
      9          6           0       -0.718018    0.117635    0.078558
     10          6           0       -1.394022    1.281069    0.330804
     11         16           0       -1.822161   -1.172158   -0.275672
     12          6           0       -2.807517    1.132538    0.248822
     13          1           0       -0.893726    2.205424    0.588165
     14          6           0       -3.182719   -0.139376   -0.061118
     15          1           0       -3.511019    1.934868    0.422031
     16          1           0       -4.179948   -0.533199   -0.180860
 ---------------------------------------------------------------------
                    Distance matrix (angstroms):
                    1          2          3          4          5
     1  C    0.000000
     2  C    1.361839   0.000000
     3  C    2.317477   1.423639   0.000000
     4  C    2.481997   2.329167   1.369010   0.000000
     5  S    1.721567   2.560791   2.563092   1.734410   0.000000
     6  H    1.078842   2.200653   3.363740   3.532115   2.444671
     7  H    2.154925   1.081042   2.217533   3.349801   3.604532
     8  H    3.340530   2.220097   1.082110   2.156254   3.607806
     9  C    3.903298   3.744508   2.545729   1.455183   2.773084
    10  C    4.733250   4.846157   3.786532   2.545729   3.274673
    11  S    5.178314   4.659456   3.274674   2.773085   4.333230
    12  C    6.079916   6.054689   4.846157   3.744509   4.659456
    13  H    4.616015   4.995646   4.178011   2.872987   3.031480
    14  C    6.371537   6.079916   4.733251   3.903299   5.178314
    15  H    6.947186   7.025881   5.866015   4.713336   5.432427
    16  H    7.394289   7.026272   5.647149   4.922405   6.240392
                    6          7          8          9         10
     6  H    0.000000
     7  H    2.627222   0.000000
     8  H    4.346344   2.636480   0.000000
     9  C    4.922404   4.713336   2.872986   0.000000
    10  C    5.647148   5.866016   4.178010   1.369010   0.000000
    11  S    6.240391   5.432428   3.031480   1.734410   2.563092
    12  C    7.026272   7.025882   4.995645   2.329168   1.423640
    13  H    5.397219   6.047447   4.759277   2.156255   1.082110
    14  C    7.394289   6.947187   4.616015   2.481998   2.317478
    15  H    7.840864   8.017736   6.047445   3.349801   2.217533
    16  H    8.427632   7.840865   5.397219   3.532116   3.363741
                   11         12         13         14         15
    11  S    0.000000
    12  C    2.560790   0.000000
    13  H    3.607806   2.220098   0.000000
    14  C    1.721566   1.361839   3.340531   0.000000
    15  H    3.604531   1.081041   2.636479   2.154925   0.000000
    16  H    2.444671   2.200653   4.346344   1.078842   2.627223
                   16
    16  H    0.000000
 Stoichiometry    C8H6S2
 Framework group  C1[X(C8H6S2)]
 Deg. of freedom    42
 Full point group                 C1      NOp   1
 Largest Abelian subgroup         C1      NOp   1
 Largest concise Abelian subgroup C1      NOp   1
                         Standard orientation:                         
 ---------------------------------------------------------------------
 Center     Atomic      Atomic             Coordinates (Angstroms)
 Number     Number       Type             X           Y           Z
 ---------------------------------------------------------------------
      1          6           0       -3.182717   -0.139377   -0.061188
      2          6           0       -2.807522    1.132544    0.248731
      3          6           0       -1.394030    1.281076    0.330745
      4          6           0       -0.718020    0.117637    0.078539
      5         16           0       -1.822154   -1.172165   -0.275688
      6          1           0       -4.179943   -0.533201   -0.180946
      7          1           0       -3.511029    1.934878    0.421906
      8          1           0       -0.893739    2.205436    0.588097
      9          6           0        0.718018   -0.117635    0.078558
     10          6           0        1.394022   -1.281069    0.330804
     11         16           0        1.822161    1.172158   -0.275672
     12          6           0        2.807517   -1.132538    0.248822
     13          1           0        0.893726   -2.205424    0.588165
     14          6           0        3.182719    0.139376   -0.061118
     15          1           0        3.511019   -1.934868    0.422031
     16          1           0        4.179948    0.533199   -0.180860
 ---------------------------------------------------------------------
 Rotational constants (GHZ):           2.7056897           0.6513636           0.5364772
 Standard basis: 6-311+G(d,p) (5D, 7F)
 There are   282 symmetry adapted cartesian basis functions of A   symmetry.
 There are   272 symmetry adapted basis functions of A   symmetry.
   272 basis functions,   436 primitive gaussians,   282 cartesian basis functions
    43 alpha electrons       43 beta electrons
       nuclear repulsion energy       633.2713358394 Hartrees.
 NAtoms=   16 NActive=   16 NUniq=   16 SFac= 1.00D+00 NAtFMM=   60 NAOKFM=F Big=F
 Integral buffers will be    131072 words long.
 Raffenetti 2 integral format.
 Two-electron integral symmetry is turned on.
 One-electron integrals computed using PRISM.
 NBasis=   272 RedAO= T EigKep=  1.09D-06  NBF=   272
 NBsUse=   272 1.00D-06 EigRej= -1.00D+00 NBFU=   272
 ExpMin= 4.05D-02 ExpMax= 9.34D+04 ExpMxC= 3.17D+03 IAcc=3 IRadAn=         5 AccDes= 0.00D+00
 Harris functional with IExCor= 1009 and IRadAn=       5 diagonalized for initial guess.
 HarFok:  IExCor= 1009 AccDes= 0.00D+00 IRadAn=         5 IDoV= 1 UseB2=F ITyADJ=14
 ICtDFT=  3500011 ScaDFX=  1.000000  1.000000  1.000000  1.000000
 FoFCou: FMM=F IPFlag=           0 FMFlag=      100000 FMFlg1=           0
         NFxFlg=           0 DoJE=T BraDBF=F KetDBF=T FulRan=T
         wScrn=  0.000000 ICntrl=       500 IOpCl=  0 I1Cent=   200000004 NGrid=           0
         NMat0=    1 NMatS0=      1 NMatT0=    0 NMatD0=    1 NMtDS0=    0 NMtDT0=    0
 Petite list used in FoFCou.
 Requested convergence on RMS density matrix=1.00D-08 within 128 cycles.
 Requested convergence on MAX density matrix=1.00D-06.
 Requested convergence on             energy=1.00D-06.
 No special actions if energy rises.
 SCF Done:  E(RM062X) =  -1104.75645626     A.U. after   15 cycles
            NFock= 15  Conv=0.60D-08     -V/T= 2.0019

 **********************************************************************

            Population analysis using the SCF Density.

 **********************************************************************

 Orbital symmetries:
       Occupied  (A) (A) (A) (A) (A) (A) (A) (A) (A) (A) (A) (A)
                 (A) (A) (A) (A) (A) (A) (A) (A) (A) (A) (A) (A)
                 (A) (A) (A) (A) (A) (A) (A) (A) (A) (A) (A) (A)
                 (A) (A) (A) (A) (A) (A) (A)
       Virtual   (A) (A) (A) (A) (A) (A) (A) (A) (A) (A) (A) (A)
                 (A) (A) (A) (A) (A) (A) (A) (A) (A) (A) (A) (A)
                 (A) (A) (A) (A) (A) (A) (A) (A) (A) (A) (A) (A)
                 (A) (A) (A) (A) (A) (A) (A) (A) (A) (A) (A) (A)
                 (A) (A) (A) (A) (A) (A) (A) (A) (A) (A) (A) (A)
                 (A) (A) (A) (A) (A) (A) (A) (A) (A) (A) (A) (A)
                 (A) (A) (A) (A) (A) (A) (A) (A) (A) (A) (A) (A)
                 (A) (A) (A) (A) (A) (A) (A) (A) (A) (A) (A) (A)
                 (A) (A) (A) (A) (A) (A) (A) (A) (A) (A) (A) (A)
                 (A) (A) (A) (A) (A) (A) (A) (A) (A) (A) (A) (A)
                 (A) (A) (A) (A) (A) (A) (A) (A) (A) (A) (A) (A)
                 (A) (A) (A) (A) (A) (A) (A) (A) (A) (A) (A) (A)
                 (A) (A) (A) (A) (A) (A) (A) (A) (A) (A) (A) (A)
                 (A) (A) (A) (A) (A) (A) (A) (A) (A) (A) (A) (A)
                 (A) (A) (A) (A) (A) (A) (A) (A) (A) (A) (A) (A)
                 (A) (A) (A) (A) (A) (A) (A) (A) (A) (A) (A) (A)
                 (A) (A) (A) (A) (A) (A) (A) (A) (A) (A) (A) (A)
                 (A) (A) (A) (A) (A) (A) (A) (A) (A) (A) (A) (A)
                 (A) (A) (A) (A) (A) (A) (A) (A) (A) (A) (A) (A)
                 (A)
 The electronic state is 1-A.
 Alpha  occ. eigenvalues --  -89.92901 -89.92901 -10.58828 -10.58776 -10.57395
 Alpha  occ. eigenvalues --  -10.57395 -10.55109 -10.55109 -10.55039 -10.55039
 Alpha  occ. eigenvalues --   -8.29467  -8.29467  -6.21539  -6.21538  -6.21321
 Alpha  occ. eigenvalues --   -6.21321  -6.21102  -6.21102  -1.00642  -0.98191
 Alpha  occ. eigenvalues --   -0.86699  -0.84003  -0.82675  -0.79553  -0.68128
 Alpha  occ. eigenvalues --   -0.65770  -0.62726  -0.60790  -0.60199  -0.54544
 Alpha  occ. eigenvalues --   -0.48179  -0.48119  -0.47852  -0.46601  -0.45674
 Alpha  occ. eigenvalues --   -0.44397  -0.43456  -0.41328  -0.40023  -0.33501
 Alpha  occ. eigenvalues --   -0.31348  -0.30965  -0.26319
 Alpha virt. eigenvalues --   -0.02218   0.00981   0.01487   0.02556   0.02926
 Alpha virt. eigenvalues --    0.03177   0.03603   0.04257   0.04411   0.04663
 Alpha virt. eigenvalues --    0.05686   0.06304   0.06473   0.06784   0.07515
 Alpha virt. eigenvalues --    0.08000   0.09036   0.09245   0.10025   0.10106
 Alpha virt. eigenvalues --    0.10891   0.11593   0.12674   0.13618   0.13688
 Alpha virt. eigenvalues --    0.14259   0.14761   0.14829   0.15876   0.16378
 Alpha virt. eigenvalues --    0.16890   0.17285   0.18110   0.18155   0.18364
 Alpha virt. eigenvalues --    0.18984   0.19782   0.19903   0.20608   0.20885
 Alpha virt. eigenvalues --    0.21342   0.21622   0.21784   0.22193   0.23421
 Alpha virt. eigenvalues --    0.23659   0.24657   0.25008   0.26213   0.27245
 Alpha virt. eigenvalues --    0.27299   0.27877   0.28625   0.29363   0.30230
 Alpha virt. eigenvalues --    0.31686   0.35117   0.35879   0.36551   0.36823
 Alpha virt. eigenvalues --    0.38367   0.39744   0.43085   0.43884   0.45717
 Alpha virt. eigenvalues --    0.46429   0.48626   0.51452   0.53871   0.55280
 Alpha virt. eigenvalues --    0.56532   0.57643   0.58175   0.58563   0.58992
 Alpha virt. eigenvalues --    0.61365   0.63049   0.63258   0.64724   0.65352
 Alpha virt. eigenvalues --    0.66706   0.67922   0.70369   0.70734   0.74519
 Alpha virt. eigenvalues --    0.74664   0.75023   0.75345   0.77503   0.78940
 Alpha virt. eigenvalues --    0.79014   0.79520   0.79884   0.81367   0.82018
 Alpha virt. eigenvalues --    0.83398   0.83851   0.84330   0.85893   0.86053
 Alpha virt. eigenvalues --    0.87642   0.88919   0.91002   0.91519   0.93520
 Alpha virt. eigenvalues --    0.96266   0.96267   0.96600   1.01029   1.02165
 Alpha virt. eigenvalues --    1.02217   1.05399   1.05514   1.07328   1.08703
 Alpha virt. eigenvalues --    1.08894   1.13477   1.13692   1.15120   1.17375
 Alpha virt. eigenvalues --    1.22777   1.27935   1.29409   1.37718   1.40439
 Alpha virt. eigenvalues --    1.40800   1.45597   1.49659   1.56923   1.57472
 Alpha virt. eigenvalues --    1.59145   1.59340   1.60465   1.61911   1.62157
 Alpha virt. eigenvalues --    1.62824   1.68181   1.68635   1.71836   1.73228
 Alpha virt. eigenvalues --    1.74442   1.76346   1.77202   1.77917   1.78550
 Alpha virt. eigenvalues --    1.81754   1.82895   1.84899   1.86551   1.90702
 Alpha virt. eigenvalues --    1.91867   1.93622   1.95314   1.98345   1.99236
 Alpha virt. eigenvalues --    1.99429   2.02963   2.03925   2.06331   2.07592
 Alpha virt. eigenvalues --    2.11215   2.12769   2.14656   2.16822   2.17156
 Alpha virt. eigenvalues --    2.19340   2.25049   2.30142   2.31992   2.39545
 Alpha virt. eigenvalues --    2.42115   2.45621   2.46899   2.50229   2.56529
 Alpha virt. eigenvalues --    2.67268   2.68659   2.72152   2.73741   2.74432
 Alpha virt. eigenvalues --    2.75111   2.76866   2.76930   2.77723   2.78647
 Alpha virt. eigenvalues --    2.79641   2.80582   2.82741   2.87291   2.92263
 Alpha virt. eigenvalues --    2.98148   3.04458   3.06562   3.18810   3.19845
 Alpha virt. eigenvalues --    3.24268   3.27859   3.33506   3.33818   3.40108
 Alpha virt. eigenvalues --    3.41444   3.43405   3.57149   3.57942   3.66797
 Alpha virt. eigenvalues --    3.89240   4.07123   4.07579   4.20051   4.30962
 Alpha virt. eigenvalues --    4.54002   8.13710   8.15121  17.47351  17.48523
 Alpha virt. eigenvalues --   17.66205  17.66984  17.69859  17.71031  23.62098
 Alpha virt. eigenvalues --   23.81365  23.89282  23.93544  24.17581  24.20511
 Alpha virt. eigenvalues --   24.23910  24.24471 189.43261 189.44936
          Condensed to atoms (all electrons):
               1          2          3          4          5          6
     1  C    5.864986   0.065809   1.020036  -0.333624  -0.203018   0.333120
     2  C    0.065809   6.933702  -1.435133   1.597288   0.505698   0.049615
     3  C    1.020036  -1.435133  10.848653  -4.147655  -2.087126  -0.051268
     4  C   -0.333624   1.597288  -4.147655  29.340548   1.029922   0.034930
     5  S   -0.203018   0.505698  -2.087126   1.029922  16.951672  -0.022565
     6  H    0.333120   0.049615  -0.051268   0.034930  -0.022565   0.453768
     7  H   -0.000475   0.346314  -0.026658   0.006004   0.004833  -0.004335
     8  H   -0.035573   0.022023   0.207787   0.030687   0.019400  -0.000057
     9  C   -0.623595  -1.482075   1.532902 -20.850039   0.058588   0.019240
    10  C   -0.221591   0.150924  -0.723063   1.532952   0.150575   0.001181
    11  S    0.073137  -0.077217   0.150580   0.058565   0.021214  -0.000603
    12  C   -0.003371  -0.035388   0.150921  -1.482083  -0.077216   0.000017
    13  H    0.004186  -0.002155  -0.004106   0.099091   0.005063  -0.000001
    14  C   -0.031746  -0.003371  -0.221591  -0.623585   0.073137   0.000041
    15  H    0.000092   0.000022   0.000318   0.019981   0.000373  -0.000000
    16  H    0.000041   0.000017   0.001181   0.019240  -0.000603   0.000000
               7          8          9         10         11         12
     1  C   -0.000475  -0.035573  -0.623595  -0.221591   0.073137  -0.003371
     2  C    0.346314   0.022023  -1.482075   0.150924  -0.077217  -0.035388
     3  C   -0.026658   0.207787   1.532902  -0.723063   0.150580   0.150921
     4  C    0.006004   0.030687 -20.850039   1.532952   0.058565  -1.482083
     5  S    0.004833   0.019400   0.058588   0.150575   0.021214  -0.077216
     6  H   -0.004335  -0.000057   0.019240   0.001181  -0.000603   0.000017
     7  H    0.492339  -0.003594   0.019981   0.000318   0.000373   0.000022
     8  H   -0.003594   0.486472   0.099091  -0.004106   0.005063  -0.002155
     9  C    0.019981   0.099091  29.340607  -4.147695   1.029938   1.597297
    10  C    0.000318  -0.004106  -4.147695  10.848655  -2.087129  -1.435142
    11  S    0.000373   0.005063   1.029938  -2.087129  16.951672   0.505703
    12  C    0.000022  -0.002155   1.597297  -1.435142   0.505703   6.933711
    13  H    0.000001   0.000041   0.030687   0.207787   0.019400   0.022023
    14  C    0.000092   0.004186  -0.333628   1.020034  -0.203019   0.065808
    15  H    0.000000   0.000001   0.006004  -0.026658   0.004833   0.346314
    16  H   -0.000000  -0.000001   0.034930  -0.051268  -0.022565   0.049614
              13         14         15         16
     1  C    0.004186  -0.031746   0.000092   0.000041
     2  C   -0.002155  -0.003371   0.000022   0.000017
     3  C   -0.004106  -0.221591   0.000318   0.001181
     4  C    0.099091  -0.623585   0.019981   0.019240
     5  S    0.005063   0.073137   0.000373  -0.000603
     6  H   -0.000001   0.000041  -0.000000   0.000000
     7  H    0.000001   0.000092   0.000000  -0.000000
     8  H    0.000041   0.004186   0.000001  -0.000001
     9  C    0.030687  -0.333628   0.006004   0.034930
    10  C    0.207787   1.020034  -0.026658  -0.051268
    11  S    0.019400  -0.203019   0.004833  -0.022565
    12  C    0.022023   0.065808   0.346314   0.049614
    13  H    0.486472  -0.035573  -0.003594  -0.000057
    14  C   -0.035573   5.864983  -0.000476   0.333120
    15  H   -0.003594  -0.000476   0.492339  -0.004335
    16  H   -0.000057   0.333120  -0.004335   0.453768
 Mulliken charges:
               1
     1  C    0.091587
     2  C   -0.636073
     3  C    0.784222
     4  C   -0.332223
     5  S   -0.429946
     6  H    0.186917
     7  H    0.164787
     8  H    0.170735
     9  C   -0.332235
    10  C    0.784226
    11  S   -0.429947
    12  C   -0.636077
    13  H    0.170735
    14  C    0.091588
    15  H    0.164786
    16  H    0.186917
 Sum of Mulliken charges =  -0.00000
 Mulliken charges with hydrogens summed into heavy atoms:
               1
     1  C    0.278504
     2  C   -0.471287
     3  C    0.954957
     4  C   -0.332223
     5  S   -0.429946
     9  C   -0.332235
    10  C    0.954962
    11  S   -0.429947
    12  C   -0.471290
    14  C    0.278505
 Electronic spatial extent (au):  <R**2>=           1996.5701
 Charge=             -0.0000 electrons
 Dipole moment (field-independent basis, Debye):
    X=             -0.0000    Y=              0.0000    Z=              0.2806  Tot=              0.2806
 Quadrupole moment (field-independent basis, Debye-Ang):
   XX=            -60.2655   YY=            -68.0381   ZZ=            -78.4666
   XY=             -1.3428   XZ=              0.0002   YZ=             -0.0001
 Traceless Quadrupole moment (field-independent basis, Debye-Ang):
   XX=              8.6579   YY=              0.8853   ZZ=             -9.5432
   XY=             -1.3428   XZ=              0.0002   YZ=             -0.0001
 Octapole moment (field-independent basis, Debye-Ang**2):
  XXX=              0.0001  YYY=              0.0001  ZZZ=             -2.6500  XYY=             -0.0002
  XXY=              0.0002  XXZ=             -2.7118  XZZ=              0.0001  YZZ=             -0.0003
  YYZ=              4.4782  XYZ=             -6.5071
 Hexadecapole moment (field-independent basis, Debye-Ang**3):
 XXXX=          -1832.7745 YYYY=           -531.7367 ZZZZ=           -129.9331 XXXY=             21.6799
 XXXZ=             -0.0068 YYYX=            -17.1626 YYYZ=              0.0017 ZZZX=             -0.0132
 ZZZY=              0.0027 XXYY=           -408.9636 XXZZ=           -418.5441 YYZZ=           -118.8760
 XXYZ=             -0.0000 YYXZ=             -0.0030 ZZXY=              6.4026
 N-N= 6.332713358394D+02 E-N=-3.875695506889D+03  KE= 1.102610433943D+03
 Calling FoFJK, ICntrl=      2127 FMM=F ISym2X=0 I1Cent= 0 IOpClX= 0 NMat=1 NMatS=1 NMatT=0.
 ***** Axes restored to original set *****
 -------------------------------------------------------------------
 Center     Atomic                   Forces (Hartrees/Bohr)
 Number     Number              X              Y              Z
 -------------------------------------------------------------------
      1        6          -0.000000380   -0.000002980   -0.000000339
      2        6          -0.000000771   -0.000004046    0.000000583
      3        6          -0.000001256   -0.000001281   -0.000000393
      4        6          -0.000001099   -0.000000902    0.000000206
      5       16           0.000001749   -0.000002271    0.000000006
      6        1           0.000000926   -0.000004376   -0.000000015
      7        1          -0.000002443   -0.000003327   -0.000000118
      8        1          -0.000002519   -0.000001102    0.000000022
      9        6           0.000000920    0.000001292    0.000000181
     10        6           0.000000480    0.000001140   -0.000000069
     11       16          -0.000001514    0.000001663   -0.000000137
     12        6           0.000001822    0.000003791    0.000000124
     13        1           0.000002536    0.000000946   -0.000000030
     14        6           0.000000220    0.000003311    0.000000021
     15        1           0.000002069    0.000003697   -0.000000002
     16        1          -0.000000741    0.000004445   -0.000000039
 -------------------------------------------------------------------
 Cartesian Forces:  Max     0.000004445 RMS     0.000001872

 GradGradGradGradGradGradGradGradGradGradGradGradGradGradGradGradGradGrad
 Berny optimization.
 FormGI is forming the generalized inverse of G from B-inverse, IUseBI=4.
 Internal  Forces:  Max     0.000000613 RMS     0.000000176
 Search for a local minimum.
 Step number   1 out of a maximum of   89 on scan point     1 out of    37
 All quantities printed in internal units (Hartrees-Bohrs-Radians)
 Mixed Optimization -- En-DIIS/RFO-DIIS
 Second derivative matrix not updated -- first step.
 ITU=  0
     Eigenvalues ---    0.01587   0.01735   0.01757   0.01786   0.02030
     Eigenvalues ---    0.02047   0.02173   0.02173   0.02237   0.02237
     Eigenvalues ---    0.02342   0.02342   0.15994   0.15994   0.15999
     Eigenvalues ---    0.15999   0.16000   0.16000   0.22130   0.22130
     Eigenvalues ---    0.23799   0.23799   0.25000   0.25000   0.31280
     Eigenvalues ---    0.31280   0.32519   0.32519   0.35741   0.35741
     Eigenvalues ---    0.35869   0.35869   0.36135   0.36135   0.37574
     Eigenvalues ---    0.40714   0.40714   0.48007   0.48007   0.51501
     Eigenvalues ---    0.515011000.000001000.000001000.000001000.00000
     Eigenvalues --- 1000.000001000.000001000.000001000.000001000.00000
     Eigenvalues --- 1000.000001000.000001000.000001000.000001000.00000
     Eigenvalues --- 1000.000001000.000001000.000001000.000001000.00000
     Eigenvalues --- 1000.000001000.000001000.000001000.000001000.00000
     Eigenvalues --- 1000.000001000.000001000.000001000.000001000.00000
     Eigenvalues --- 1000.000001000.000001000.000001000.000001000.00000
     Eigenvalues --- 1000.000001000.000001000.000001000.00000
 RFO step:  Lambda= 0.00000000D+00 EMin= 1.58701021D-02
 Linear search not attempted -- first point.
 Iteration  1 RMS(Cart)=  0.00000183 RMS(Int)=  0.00000000
 Iteration  2 RMS(Cart)=  0.00000000 RMS(Int)=  0.00000000
 Iteration  1 RMS(Cart)=  0.00000000 RMS(Int)=  0.00000000
 Variable       Old X    -DE/DX   Delta X   Delta X   Delta X     New X
                                 (Linear)    (Quad)   (Total)
    R1        2.57350   0.00000   0.00000   0.00000   0.00000   2.57350
    R2        3.25329  -0.00000   0.00000  -0.00000  -0.00000   3.25329
    R3        2.03872   0.00000   0.00000   0.00000   0.00000   2.03872
    R4        2.69029   0.00000   0.00000   0.00000   0.00000   2.69029
    R5        2.04287  -0.00000   0.00000  -0.00000  -0.00000   2.04287
    R6        2.58705   0.00000   0.00000   0.00000   0.00000   2.58705
    R7        2.04489   0.00000   0.00000   0.00000   0.00000   2.04489
    R8        3.27756   0.00000   0.00000   0.00000   0.00000   3.27756
    R9        2.74990  -0.00000   0.00000  -0.00000  -0.00000   2.74990
   R10        2.58705  -0.00000   0.00000  -0.00000  -0.00000   2.58705
   R11        3.27756   0.00000   0.00000   0.00000   0.00000   3.27756
   R12        2.69029  -0.00000   0.00000  -0.00000  -0.00000   2.69029
   R13        2.04489   0.00000   0.00000   0.00000   0.00000   2.04489
   R14        3.25329  -0.00000   0.00000  -0.00000  -0.00000   3.25329
   R15        2.57350   0.00000   0.00000   0.00000   0.00000   2.57350
   R16        2.04287  -0.00000   0.00000  -0.00000  -0.00000   2.04287
   R17        2.03872   0.00000   0.00000   0.00000   0.00000   2.03872
    A1        1.95080  -0.00000   0.00000  -0.00000  -0.00000   1.95080
    A2        2.24065   0.00000   0.00000   0.00000   0.00000   2.24065
    A3        2.09173  -0.00000   0.00000  -0.00000  -0.00000   2.09173
    A4        1.96503  -0.00000   0.00000  -0.00000  -0.00000   1.96503
    A5        2.15358  -0.00000   0.00000  -0.00000  -0.00000   2.15358
    A6        2.16454   0.00000   0.00000   0.00000   0.00000   2.16454
    A7        1.97251   0.00000   0.00000   0.00000   0.00000   1.97251
    A8        2.16743  -0.00000   0.00000  -0.00000  -0.00000   2.16743
    A9        2.14298  -0.00000   0.00000  -0.00000  -0.00000   2.14298
   A10        1.93399  -0.00000   0.00000  -0.00000  -0.00000   1.93399
   A11        2.24554   0.00000   0.00000   0.00000   0.00000   2.24554
   A12        2.10366   0.00000   0.00000   0.00000   0.00000   2.10366
   A13        1.60234   0.00000   0.00000   0.00000   0.00000   1.60234
   A14        2.24554   0.00000   0.00000   0.00000   0.00000   2.24554
   A15        2.10366  -0.00000   0.00000  -0.00000  -0.00000   2.10366
   A16        1.93399  -0.00000   0.00000  -0.00000  -0.00000   1.93399
   A17        1.97251   0.00000   0.00000   0.00000   0.00000   1.97251
   A18        2.14298  -0.00000   0.00000  -0.00000  -0.00000   2.14298
   A19        2.16742   0.00000   0.00000   0.00000   0.00000   2.16743
   A20        1.60234  -0.00000   0.00000  -0.00000  -0.00000   1.60234
   A21        1.96503  -0.00000   0.00000  -0.00000  -0.00000   1.96502
   A22        2.16454   0.00000   0.00000   0.00000   0.00000   2.16454
   A23        2.15358  -0.00000   0.00000  -0.00000  -0.00000   2.15358
   A24        1.95080   0.00000   0.00000   0.00000   0.00000   1.95080
   A25        2.09173  -0.00000   0.00000  -0.00000  -0.00000   2.09173
   A26        2.24065  -0.00000   0.00000  -0.00000  -0.00000   2.24065
    D1       -0.01130   0.00000   0.00000   0.00000   0.00000  -0.01129
    D2        3.14014   0.00000   0.00000   0.00000   0.00000   3.14014
    D3        3.13506   0.00000   0.00000   0.00000   0.00000   3.13506
    D4        0.00331  -0.00000   0.00000  -0.00000  -0.00000   0.00331
    D5        0.01336  -0.00000   0.00000  -0.00000  -0.00000   0.01336
    D6       -3.13254   0.00000   0.00000   0.00000   0.00000  -3.13254
    D7        0.00218  -0.00000   0.00000  -0.00001  -0.00001   0.00217
    D8       -3.11495  -0.00000   0.00000  -0.00000  -0.00000  -3.11495
    D9        3.13385  -0.00000   0.00000  -0.00000  -0.00000   3.13385
   D10        0.01673   0.00000   0.00000   0.00000   0.00000   0.01673
   D11        0.00784   0.00000   0.00000   0.00001   0.00001   0.00784
   D12       -3.13486   0.00000   0.00000   0.00000   0.00000  -3.13486
   D13        3.12535   0.00000   0.00000   0.00000   0.00000   3.12535
   D14       -0.01735  -0.00000   0.00000  -0.00000  -0.00000  -0.01735
   D15       -0.01199  -0.00000   0.00000  -0.00000  -0.00000  -0.01199
   D16        3.13061  -0.00000   0.00000  -0.00000  -0.00000   3.13060
   D17        2.66522   0.00000   0.00000   0.00000   0.00000   2.66522
   D18       -0.47758  -0.00000   0.00000   0.00000   0.00000  -0.47758
   D19       -0.47758  -0.00000   0.00000  -0.00000  -0.00000  -0.47758
   D20        2.66281  -0.00000   0.00000   0.00000  -0.00000   2.66281
   D21       -3.13486  -0.00000   0.00000   0.00000   0.00000  -3.13486
   D22       -0.01735   0.00000   0.00000   0.00000   0.00000  -0.01735
   D23        0.00784   0.00000   0.00000   0.00000   0.00000   0.00784
   D24        3.12535   0.00000   0.00000   0.00000   0.00000   3.12535
   D25        3.13060  -0.00000   0.00000  -0.00000  -0.00000   3.13060
   D26       -0.01199  -0.00000   0.00000  -0.00000  -0.00000  -0.01199
   D27        0.00217   0.00000   0.00000   0.00000   0.00000   0.00217
   D28        3.13385  -0.00000   0.00000  -0.00000  -0.00000   3.13385
   D29       -3.11495  -0.00000   0.00000   0.00000   0.00000  -3.11495
   D30        0.01673  -0.00000   0.00000  -0.00000  -0.00000   0.01673
   D31        0.01336   0.00000   0.00000   0.00000   0.00000   0.01336
   D32       -3.13254   0.00000   0.00000   0.00000   0.00000  -3.13254
   D33       -0.01129  -0.00000   0.00000  -0.00000  -0.00000  -0.01130
   D34        3.13506   0.00000   0.00000  -0.00000  -0.00000   3.13506
   D35        3.14014  -0.00000   0.00000   0.00000   0.00000   3.14014
   D36        0.00331   0.00000   0.00000   0.00000   0.00000   0.00331
         Item               Value     Threshold  Converged?
 Maximum Force            0.000001     0.000015     YES
 RMS     Force            0.000000     0.000010     YES
 Maximum Displacement     0.000008     0.000060     YES
 RMS     Displacement     0.000002     0.000040     YES
 Predicted change in Energy=-5.285860D-12
 Optimization completed.
    -- Stationary point found.
                           ----------------------------
                           !   Optimized Parameters   !
                           ! (Angstroms and Degrees)  !
 --------------------------                            --------------------------
 ! Name  Definition              Value          Derivative Info.                !
 --------------------------------------------------------------------------------
 ! R1    R(1,2)                  1.3618         -DE/DX =    0.0                 !
 ! R2    R(1,5)                  1.7216         -DE/DX =    0.0                 !
 ! R3    R(1,6)                  1.0788         -DE/DX =    0.0                 !
 ! R4    R(2,3)                  1.4236         -DE/DX =    0.0                 !
 ! R5    R(2,7)                  1.081          -DE/DX =    0.0                 !
 ! R6    R(3,4)                  1.369          -DE/DX =    0.0                 !
 ! R7    R(3,8)                  1.0821         -DE/DX =    0.0                 !
 ! R8    R(4,5)                  1.7344         -DE/DX =    0.0                 !
 ! R9    R(4,9)                  1.4552         -DE/DX =    0.0                 !
 ! R10   R(9,10)                 1.369          -DE/DX =    0.0                 !
 ! R11   R(9,11)                 1.7344         -DE/DX =    0.0                 !
 ! R12   R(10,12)                1.4236         -DE/DX =    0.0                 !
 ! R13   R(10,13)                1.0821         -DE/DX =    0.0                 !
 ! R14   R(11,14)                1.7216         -DE/DX =    0.0                 !
 ! R15   R(12,14)                1.3618         -DE/DX =    0.0                 !
 ! R16   R(12,15)                1.081          -DE/DX =    0.0                 !
 ! R17   R(14,16)                1.0788         -DE/DX =    0.0                 !
 ! A1    A(2,1,5)              111.7725         -DE/DX =    0.0                 !
 ! A2    A(2,1,6)              128.3795         -DE/DX =    0.0                 !
 ! A3    A(5,1,6)              119.8474         -DE/DX =    0.0                 !
 ! A4    A(1,2,3)              112.5877         -DE/DX =    0.0                 !
 ! A5    A(1,2,7)              123.3908         -DE/DX =    0.0                 !
 ! A6    A(3,2,7)              124.0189         -DE/DX =    0.0                 !
 ! A7    A(2,3,4)              113.0165         -DE/DX =    0.0                 !
 ! A8    A(2,3,8)              124.1844         -DE/DX =    0.0                 !
 ! A9    A(4,3,8)              122.7836         -DE/DX =    0.0                 !
 ! A10   A(3,4,5)              110.8094         -DE/DX =    0.0                 !
 ! A11   A(3,4,9)              128.6599         -DE/DX =    0.0                 !
 ! A12   A(5,4,9)              120.5306         -DE/DX =    0.0                 !
 ! A13   A(1,5,4)               91.8073         -DE/DX =    0.0                 !
 ! A14   A(4,9,10)             128.6599         -DE/DX =    0.0                 !
 ! A15   A(4,9,11)             120.5307         -DE/DX =    0.0                 !
 ! A16   A(10,9,11)            110.8094         -DE/DX =    0.0                 !
 ! A17   A(9,10,12)            113.0165         -DE/DX =    0.0                 !
 ! A18   A(9,10,13)            122.7837         -DE/DX =    0.0                 !
 ! A19   A(12,10,13)           124.1843         -DE/DX =    0.0                 !
 ! A20   A(9,11,14)             91.8074         -DE/DX =    0.0                 !
 ! A21   A(10,12,14)           112.5877         -DE/DX =    0.0                 !
 ! A22   A(10,12,15)           124.0189         -DE/DX =    0.0                 !
 ! A23   A(14,12,15)           123.3909         -DE/DX =    0.0                 !
 ! A24   A(11,14,12)           111.7725         -DE/DX =    0.0                 !
 ! A25   A(11,14,16)           119.8475         -DE/DX =    0.0                 !
 ! A26   A(12,14,16)           128.3795         -DE/DX =    0.0                 !
 ! D1    D(5,1,2,3)             -0.6473         -DE/DX =    0.0                 !
 ! D2    D(5,1,2,7)            179.9168         -DE/DX =    0.0                 !
 ! D3    D(6,1,2,3)            179.6256         -DE/DX =    0.0                 !
 ! D4    D(6,1,2,7)              0.1897         -DE/DX =    0.0                 !
 ! D5    D(2,1,5,4)              0.7654         -DE/DX =    0.0                 !
 ! D6    D(6,1,5,4)           -179.4812         -DE/DX =    0.0                 !
 ! D7    D(1,2,3,4)              0.1247         -DE/DX =    0.0                 !
 ! D8    D(1,2,3,8)           -178.4733         -DE/DX =    0.0                 !
 ! D9    D(7,2,3,4)            179.5565         -DE/DX =    0.0                 !
 ! D10   D(7,2,3,8)              0.9585         -DE/DX =    0.0                 !
 ! D11   D(2,3,4,5)              0.449          -DE/DX =    0.0                 !
 ! D12   D(2,3,4,9)           -179.6143         -DE/DX =    0.0                 !
 ! D13   D(8,3,4,5)            179.0695         -DE/DX =    0.0                 !
 ! D14   D(8,3,4,9)             -0.9938         -DE/DX =    0.0                 !
 ! D15   D(3,4,5,1)             -0.687          -DE/DX =    0.0                 !
 ! D16   D(9,4,5,1)            179.3705         -DE/DX =    0.0                 !
 ! D17   D(3,4,9,10)           152.7056         -DE/DX =    0.0                 !
 ! D18   D(3,4,9,11)           -27.3632         -DE/DX =    0.0                 !
 ! D19   D(5,4,9,10)           -27.3631         -DE/DX =    0.0                 !
 ! D20   D(5,4,9,11)           152.568          -DE/DX =    0.0                 !
 ! D21   D(4,9,10,12)         -179.6142         -DE/DX =    0.0                 !
 ! D22   D(4,9,10,13)           -0.9939         -DE/DX =    0.0                 !
 ! D23   D(11,9,10,12)           0.4492         -DE/DX =    0.0                 !
 ! D24   D(11,9,10,13)         179.0695         -DE/DX =    0.0                 !
 ! D25   D(4,9,11,14)          179.3705         -DE/DX =    0.0                 !
 ! D26   D(10,9,11,14)          -0.6871         -DE/DX =    0.0                 !
 ! D27   D(9,10,12,14)           0.1244         -DE/DX =    0.0                 !
 ! D28   D(9,10,12,15)         179.5564         -DE/DX =    0.0                 !
 ! D29   D(13,10,12,14)       -178.4734         -DE/DX =    0.0                 !
 ! D30   D(13,10,12,15)          0.9586         -DE/DX =    0.0                 !
 ! D31   D(9,11,14,12)           0.7654         -DE/DX =    0.0                 !
 ! D32   D(9,11,14,16)        -179.4811         -DE/DX =    0.0                 !
 ! D33   D(10,12,14,11)         -0.6471         -DE/DX =    0.0                 !
 ! D34   D(10,12,14,16)        179.6256         -DE/DX =    0.0                 !
 ! D35   D(15,12,14,11)        179.9168         -DE/DX =    0.0                 !
 ! D36   D(15,12,14,16)          0.1895         -DE/DX =    0.0                 !
 --------------------------------------------------------------------------------
 Iteration  1 RMS(Cart)=  0.02972446 RMS(Int)=  0.01450429
 Iteration  2 RMS(Cart)=  0.00046030 RMS(Int)=  0.01449885
 Iteration  3 RMS(Cart)=  0.00000365 RMS(Int)=  0.01449885
 Iteration  4 RMS(Cart)=  0.00000005 RMS(Int)=  0.01449885
 Iteration  1 RMS(Cart)=  0.01624959 RMS(Int)=  0.00790477
 Iteration  2 RMS(Cart)=  0.00887277 RMS(Int)=  0.00883027
 Iteration  3 RMS(Cart)=  0.00484019 RMS(Int)=  0.00997341
 Iteration  4 RMS(Cart)=  0.00263936 RMS(Int)=  0.01072686
 Iteration  5 RMS(Cart)=  0.00143900 RMS(Int)=  0.01116782
 Iteration  6 RMS(Cart)=  0.00078448 RMS(Int)=  0.01141603
 Iteration  7 RMS(Cart)=  0.00042765 RMS(Int)=  0.01155348
 Iteration  8 RMS(Cart)=  0.00023312 RMS(Int)=  0.01162903
 Iteration  9 RMS(Cart)=  0.00012708 RMS(Int)=  0.01167039
 Iteration 10 RMS(Cart)=  0.00006927 RMS(Int)=  0.01169299
 Iteration 11 RMS(Cart)=  0.00003776 RMS(Int)=  0.01170532
 Iteration 12 RMS(Cart)=  0.00002058 RMS(Int)=  0.01171205
 Iteration 13 RMS(Cart)=  0.00001122 RMS(Int)=  0.01171572
 Iteration 14 RMS(Cart)=  0.00000612 RMS(Int)=  0.01171772
 Iteration 15 RMS(Cart)=  0.00000333 RMS(Int)=  0.01171881
 Iteration 16 RMS(Cart)=  0.00000182 RMS(Int)=  0.01171940
 Iteration 17 RMS(Cart)=  0.00000099 RMS(Int)=  0.01171973
 GradGradGradGradGradGradGradGradGradGradGradGradGradGradGradGradGradGrad

                          Input orientation:                          
 ---------------------------------------------------------------------
 Center     Atomic      Atomic             Coordinates (Angstroms)
 Number     Number       Type             X           Y           Z
 ---------------------------------------------------------------------
      1          6           0        3.186116    0.149285    0.003158
      2          6           0        2.803263   -1.135771    0.240760
      3          6           0        1.388027   -1.289204    0.264427
      4          6           0        0.717564   -0.120383    0.021043
      5         16           0        1.831339    1.190554   -0.205415
      6          1           0        4.185970    0.550546   -0.056085
      7          1           0        3.502126   -1.943064    0.409655
      8          1           0        0.881570   -2.222653    0.472651
      9          6           0       -0.717564    0.120382    0.021063
     10          6           0       -1.388021    1.289197    0.264488
     11         16           0       -1.831344   -1.190550   -0.205398
     12          6           0       -2.803258    1.135766    0.240849
     13          1           0       -0.881560    2.222643    0.472722
     14          6           0       -3.186116   -0.149285    0.003230
     15          1           0       -3.502116    1.943055    0.409777
     16          1           0       -4.185971   -0.550544   -0.055999
 ---------------------------------------------------------------------
                    Distance matrix (angstroms):
                    1          2          3          4          5
     1  C    0.000000
     2  C    1.361764   0.000000
     3  C    2.317463   1.423725   0.000000
     4  C    2.483302   2.330114   1.369269   0.000000
     5  S    1.721384   2.560370   2.562513   1.735031   0.000000
     6  H    1.078994   2.200832   3.363909   3.533544   2.444626
     7  H    2.154768   1.081044   2.217664   3.350667   3.604080
     8  H    3.340277   2.219907   1.082213   2.156476   3.607190
     9  C    3.903828   3.744651   2.545520   1.455183   2.773709
    10  C    4.721274   4.842303   3.788746   2.545520   3.254969
    11  S    5.197457   4.656355   3.254969   2.773709   4.368627
    12  C    6.074721   6.049211   4.842304   3.744651   4.656354
    13  H    4.589694   4.991059   4.186583   2.872452   2.980754
    14  C    6.379223   6.074721   4.721273   3.903827   5.197456
    15  H    6.936526   7.018942   5.863627   4.713235   5.421297
    16  H    7.405466   7.019968   5.631851   4.922969   6.265921
                    6          7          8          9         10
     6  H    0.000000
     7  H    2.627288   0.000000
     8  H    4.346177   2.636181   0.000000
     9  C    4.922970   4.713236   2.872451   0.000000
    10  C    5.631851   5.863627   4.186583   1.369270   0.000000
    11  S    6.265922   5.421298   2.980754   1.735031   2.562513
    12  C    7.019968   7.018942   4.991059   2.330114   1.423725
    13  H    5.362406   6.047626   4.782184   2.156477   1.082213
    14  C    7.405466   6.936526   4.589693   2.483302   2.317462
    15  H    7.827054   8.010076   6.047627   3.350667   2.217664
    16  H    8.444039   7.827054   5.362406   3.533544   3.363909
                   11         12         13         14         15
    11  S    0.000000
    12  C    2.560371   0.000000
    13  H    3.607190   2.219907   0.000000
    14  C    1.721384   1.361764   3.340276   0.000000
    15  H    3.604081   1.081044   2.636180   2.154768   0.000000
    16  H    2.444626   2.200832   4.346176   1.078994   2.627288
                   16
    16  H    0.000000
 Stoichiometry    C8H6S2
 Framework group  C1[X(C8H6S2)]
 Deg. of freedom    42
 Full point group                 C1      NOp   1
 Largest Abelian subgroup         C1      NOp   1
 Largest concise Abelian subgroup C1      NOp   1
                         Standard orientation:                         
 ---------------------------------------------------------------------
 Center     Atomic      Atomic             Coordinates (Angstroms)
 Number     Number       Type             X           Y           Z
 ---------------------------------------------------------------------
      1          6           0       -3.186935   -0.130629   -0.013514
      2          6           0       -2.796565    1.152164    0.224088
      3          6           0       -1.380456    1.297308    0.247754
      4          6           0       -0.716847    0.124582    0.004371
      5         16           0       -1.838278   -1.179812   -0.222087
      6          1           0       -4.189121   -0.526029   -0.072757
      7          1           0       -3.490690    1.963534    0.392982
      8          1           0       -0.868542    2.227776    0.455979
      9          6           0        0.716847   -0.124581    0.004390
     10          6           0        1.380450   -1.297302    0.247816
     11         16           0        1.838283    1.179807   -0.222070
     12          6           0        2.796560   -1.152159    0.224177
     13          1           0        0.868532   -2.227766    0.456049
     14          6           0        3.186935    0.130629   -0.013443
     15          1           0        3.490680   -1.963526    0.393104
     16          1           0        4.189123    0.526027   -0.072671
 ---------------------------------------------------------------------
 Rotational constants (GHZ):           2.7075958           0.6530184           0.5334181
 Standard basis: 6-311+G(d,p) (5D, 7F)
 There are   282 symmetry adapted cartesian basis functions of A   symmetry.
 There are   272 symmetry adapted basis functions of A   symmetry.
   272 basis functions,   436 primitive gaussians,   282 cartesian basis functions
    43 alpha electrons       43 beta electrons
       nuclear repulsion energy       633.2501348234 Hartrees.
 NAtoms=   16 NActive=   16 NUniq=   16 SFac= 1.00D+00 NAtFMM=   60 NAOKFM=F Big=F
 Integral buffers will be    131072 words long.
 Raffenetti 2 integral format.
 Two-electron integral symmetry is turned on.
 One-electron integrals computed using PRISM.
 NBasis=   272 RedAO= T EigKep=  1.08D-06  NBF=   272
 NBsUse=   272 1.00D-06 EigRej= -1.00D+00 NBFU=   272
 Initial guess from the checkpoint file:  "/work/mmh568/Gau_scratch/Gau-34222.chk"
 B after Tr=     0.000000    0.000000    0.000000
         Rot=    0.999997   -0.000000    0.000000    0.002298 Ang=  -0.26 deg.
 ExpMin= 4.05D-02 ExpMax= 9.34D+04 ExpMxC= 3.17D+03 IAcc=3 IRadAn=         5 AccDes= 0.00D+00
 Harris functional with IExCor= 1009 and IRadAn=       5 diagonalized for initial guess.
 HarFok:  IExCor= 1009 AccDes= 0.00D+00 IRadAn=         5 IDoV= 1 UseB2=F ITyADJ=14
 ICtDFT=  3500011 ScaDFX=  1.000000  1.000000  1.000000  1.000000
 FoFCou: FMM=F IPFlag=           0 FMFlag=      100000 FMFlg1=           0
         NFxFlg=           0 DoJE=T BraDBF=F KetDBF=T FulRan=T
         wScrn=  0.000000 ICntrl=       500 IOpCl=  0 I1Cent=   200000004 NGrid=           0
         NMat0=    1 NMatS0=      1 NMatT0=    0 NMatD0=    1 NMtDS0=    0 NMtDT0=    0
 Petite list used in FoFCou.
 Requested convergence on RMS density matrix=1.00D-08 within 128 cycles.
 Requested convergence on MAX density matrix=1.00D-06.
 Requested convergence on             energy=1.00D-06.
 No special actions if energy rises.
 SCF Done:  E(RM062X) =  -1104.75610664     A.U. after   15 cycles
            NFock= 15  Conv=0.49D-08     -V/T= 2.0019
 Calling FoFJK, ICntrl=      2127 FMM=F ISym2X=0 I1Cent= 0 IOpClX= 0 NMat=1 NMatS=1 NMatT=0.
 ***** Axes restored to original set *****
 -------------------------------------------------------------------
 Center     Atomic                   Forces (Hartrees/Bohr)
 Number     Number              X              Y              Z
 -------------------------------------------------------------------
      1        6           0.000079744   -0.000118069    0.000849414
      2        6          -0.000066414    0.000093464    0.000530360
      3        6          -0.000031720   -0.000387224   -0.001924142
      4        6           0.000223444    0.001256131    0.003675259
      5       16          -0.000253447   -0.000179858   -0.002348879
      6        1          -0.000141522   -0.000044095   -0.000207317
      7        1          -0.000034990   -0.000058278   -0.000208571
      8        1           0.000143504   -0.000098618   -0.000366089
      9        6          -0.000223212   -0.001256155    0.003675329
     10        6           0.000031630    0.000387318   -0.001924402
     11       16           0.000253430    0.000179898   -0.002348861
     12        6           0.000066501   -0.000093594    0.000530591
     13        1          -0.000143448    0.000098612   -0.000366106
     14        6          -0.000079965    0.000118151    0.000849307
     15        1           0.000034964    0.000058228   -0.000208536
     16        1           0.000141500    0.000044090   -0.000207359
 -------------------------------------------------------------------
 Cartesian Forces:  Max     0.003675329 RMS     0.001039168

 GradGradGradGradGradGradGradGradGradGradGradGradGradGradGradGradGradGrad
 Berny optimization.
 FormGI is forming the generalized inverse of G from B-inverse, IUseBI=4.
 Internal  Forces:  Max     0.001834760 RMS     0.000456902
 Search for a local minimum.
 Step number   1 out of a maximum of   89 on scan point     2 out of    37
 All quantities printed in internal units (Hartrees-Bohrs-Radians)
 Mixed Optimization -- RFO/linear search
 Second derivative matrix not updated -- first step.
 ITU=  0
     Eigenvalues ---    0.01593   0.01738   0.01757   0.01793   0.02030
     Eigenvalues ---    0.02048   0.02173   0.02174   0.02237   0.02237
     Eigenvalues ---    0.02342   0.02342   0.15995   0.15995   0.15997
     Eigenvalues ---    0.15997   0.16000   0.16000   0.22129   0.22129
     Eigenvalues ---    0.23783   0.23788   0.24936   0.24937   0.31279
     Eigenvalues ---    0.31280   0.32517   0.32518   0.35741   0.35741
     Eigenvalues ---    0.35869   0.35869   0.36135   0.36135   0.37574
     Eigenvalues ---    0.40714   0.40714   0.48006   0.48008   0.51500
     Eigenvalues ---    0.515001000.000001000.000001000.000001000.00000
     Eigenvalues --- 1000.000001000.000001000.000001000.000001000.00000
     Eigenvalues --- 1000.000001000.000001000.000001000.000001000.00000
     Eigenvalues --- 1000.000001000.000001000.000001000.000001000.00000
     Eigenvalues --- 1000.000001000.000001000.000001000.000001000.00000
     Eigenvalues --- 1000.000001000.000001000.000001000.000001000.00000
     Eigenvalues --- 1000.000001000.000001000.000001000.000001000.00000
     Eigenvalues --- 1000.000001000.000001000.000001000.00000
 RFO step:  Lambda=-4.91008862D-04 EMin= 1.59273275D-02
 Linear search not attempted -- first point.
 Iteration  1 RMS(Cart)=  0.02992369 RMS(Int)=  0.00048260
 Iteration  2 RMS(Cart)=  0.00069797 RMS(Int)=  0.00009942
 Iteration  3 RMS(Cart)=  0.00000017 RMS(Int)=  0.00009942
 Iteration  1 RMS(Cart)=  0.00000049 RMS(Int)=  0.00000024
 Variable       Old X    -DE/DX   Delta X   Delta X   Delta X     New X
                                 (Linear)    (Quad)   (Total)
    R1        2.57336  -0.00008   0.00000  -0.00013  -0.00012   2.57324
    R2        3.25294   0.00019   0.00000   0.00059   0.00060   3.25354
    R3        2.03900  -0.00014   0.00000  -0.00038  -0.00038   2.03863
    R4        2.69045  -0.00022   0.00000  -0.00053  -0.00053   2.68992
    R5        2.04288  -0.00001   0.00000  -0.00003  -0.00003   2.04284
    R6        2.58754   0.00002   0.00000   0.00002   0.00002   2.58756
    R7        2.04509  -0.00005   0.00000  -0.00015  -0.00015   2.04494
    R8        3.27873  -0.00012   0.00000  -0.00041  -0.00042   3.27832
    R9        2.74990  -0.00016   0.00000  -0.00042  -0.00042   2.74948
   R10        2.58754   0.00002   0.00000   0.00002   0.00002   2.58756
   R11        3.27873  -0.00012   0.00000  -0.00041  -0.00042   3.27832
   R12        2.69045  -0.00022   0.00000  -0.00053  -0.00053   2.68992
   R13        2.04509  -0.00005   0.00000  -0.00015  -0.00015   2.04494
   R14        3.25294   0.00019   0.00000   0.00059   0.00060   3.25354
   R15        2.57336  -0.00008   0.00000  -0.00013  -0.00012   2.57324
   R16        2.04288  -0.00001   0.00000  -0.00003  -0.00003   2.04284
   R17        2.03900  -0.00014   0.00000  -0.00038  -0.00038   2.03863
    A1        1.95056   0.00013   0.00000   0.00070   0.00052   1.95108
    A2        2.24087  -0.00001   0.00000   0.00006   0.00002   2.24088
    A3        2.09174  -0.00012   0.00000  -0.00060  -0.00065   2.09109
    A4        1.96499  -0.00005   0.00000  -0.00014  -0.00025   1.96474
    A5        2.15342   0.00007   0.00000   0.00042   0.00045   2.15387
    A6        2.16463  -0.00002   0.00000  -0.00012  -0.00008   2.16455
    A7        1.97337  -0.00003   0.00000  -0.00021  -0.00033   1.97304
    A8        2.16681  -0.00013   0.00000  -0.00086  -0.00081   2.16600
    A9        2.14280   0.00015   0.00000   0.00090   0.00095   2.14376
   A10        1.93247   0.00017   0.00000   0.00130   0.00088   1.93335
   A11        2.24482   0.00005   0.00000   0.00110   0.00086   2.24567
   A12        2.10375  -0.00013   0.00000   0.00039   0.00015   2.10390
   A13        1.60316  -0.00021   0.00000  -0.00085  -0.00101   1.60215
   A14        2.24482   0.00005   0.00000   0.00110   0.00086   2.24567
   A15        2.10375  -0.00013   0.00000   0.00039   0.00015   2.10390
   A16        1.93247   0.00017   0.00000   0.00130   0.00088   1.93335
   A17        1.97337  -0.00003   0.00000  -0.00021  -0.00033   1.97304
   A18        2.14281   0.00015   0.00000   0.00090   0.00095   2.14376
   A19        2.16681  -0.00013   0.00000  -0.00086  -0.00081   2.16600
   A20        1.60316  -0.00021   0.00000  -0.00085  -0.00101   1.60215
   A21        1.96499  -0.00005   0.00000  -0.00014  -0.00025   1.96474
   A22        2.16463  -0.00002   0.00000  -0.00012  -0.00008   2.16455
   A23        2.15342   0.00007   0.00000   0.00042   0.00045   2.15387
   A24        1.95056   0.00013   0.00000   0.00070   0.00052   1.95108
   A25        2.09174  -0.00012   0.00000  -0.00060  -0.00065   2.09109
   A26        2.24086  -0.00001   0.00000   0.00006   0.00002   2.24088
    D1       -0.00635  -0.00027   0.00000  -0.01258  -0.01258  -0.01893
    D2       -3.13008  -0.00061   0.00000  -0.02258  -0.02258   3.13053
    D3        3.12773   0.00039   0.00000   0.01301   0.01301   3.14074
    D4        0.00400   0.00005   0.00000   0.00301   0.00301   0.00701
    D5       -0.00508   0.00072   0.00000   0.02985   0.02984   0.02477
    D6       -3.13988   0.00012   0.00000   0.00672   0.00673  -3.13316
    D7        0.01856  -0.00051   0.00000  -0.01820  -0.01819   0.00037
    D8       -3.10161  -0.00036   0.00000  -0.01016  -0.01016  -3.11176
    D9       -3.14104  -0.00016   0.00000  -0.00811  -0.00811   3.13404
   D10        0.02199  -0.00002   0.00000  -0.00007  -0.00007   0.02191
   D11       -0.02188   0.00103   0.00000   0.03996   0.03998   0.01810
   D12       -3.09220  -0.00048   0.00000  -0.00601  -0.00601  -3.09822
   D13        3.09862   0.00088   0.00000   0.03203   0.03204   3.13066
   D14        0.02830  -0.00062   0.00000  -0.01395  -0.01395   0.01434
   D15        0.01548  -0.00100   0.00000  -0.03976  -0.03976  -0.02428
   D16        3.09243   0.00038   0.00000   0.00196   0.00196   3.09440
   D17        2.68254   0.00146   0.00000   0.09993   0.09993   2.78247
   D18       -0.38165  -0.00019   0.00000   0.04997   0.04996  -0.33169
   D19       -0.38165  -0.00019   0.00000   0.04997   0.04997  -0.33168
   D20        2.83734  -0.00183   0.00000   0.00000   0.00000   2.83735
   D21       -3.09220  -0.00048   0.00000  -0.00601  -0.00601  -3.09822
   D22        0.02830  -0.00062   0.00000  -0.01395  -0.01395   0.01434
   D23       -0.02188   0.00103   0.00000   0.03997   0.03998   0.01810
   D24        3.09862   0.00088   0.00000   0.03203   0.03204   3.13066
   D25        3.09243   0.00038   0.00000   0.00196   0.00196   3.09440
   D26        0.01548  -0.00100   0.00000  -0.03976  -0.03976  -0.02428
   D27        0.01856  -0.00051   0.00000  -0.01820  -0.01820   0.00036
   D28       -3.14104  -0.00016   0.00000  -0.00811  -0.00811   3.13404
   D29       -3.10160  -0.00036   0.00000  -0.01016  -0.01016  -3.11176
   D30        0.02199  -0.00002   0.00000  -0.00007  -0.00007   0.02191
   D31       -0.00508   0.00072   0.00000   0.02985   0.02984   0.02476
   D32       -3.13988   0.00012   0.00000   0.00672   0.00672  -3.13316
   D33       -0.00635  -0.00027   0.00000  -0.01257  -0.01257  -0.01893
   D34        3.12773   0.00039   0.00000   0.01302   0.01302   3.14074
   D35       -3.13008  -0.00061   0.00000  -0.02258  -0.02258   3.13053
   D36        0.00400   0.00005   0.00000   0.00301   0.00301   0.00701
         Item               Value     Threshold  Converged?
 Maximum Force            0.001646     0.000015     NO 
 RMS     Force            0.000341     0.000010     NO 
 Maximum Displacement     0.110524     0.000060     NO 
 RMS     Displacement     0.029882     0.000040     NO 
 Predicted change in Energy=-2.527422D-04
 GradGradGradGradGradGradGradGradGradGradGradGradGradGradGradGradGradGrad

                          Input orientation:                          
 ---------------------------------------------------------------------
 Center     Atomic      Atomic             Coordinates (Angstroms)
 Number     Number       Type             X           Y           Z
 ---------------------------------------------------------------------
      1          6           0        3.184833    0.152795    0.031963
      2          6           0        2.804334   -1.139380    0.231287
      3          6           0        1.389662   -1.296651    0.243736
      4          6           0        0.717687   -0.118975    0.052813
      5         16           0        1.828979    1.193784   -0.173592
      6          1           0        4.183855    0.556338   -0.021960
      7          1           0        3.504361   -1.951070    0.371782
      8          1           0        0.885418   -2.238833    0.414167
      9          6           0       -0.717687    0.118974    0.052832
     10          6           0       -1.389656    1.296646    0.243795
     11         16           0       -1.828983   -1.193780   -0.173576
     12          6           0       -2.804329    1.139375    0.231378
     13          1           0       -0.885409    2.238824    0.414235
     14          6           0       -3.184833   -0.152796    0.032033
     15          1           0       -3.504352    1.951062    0.371908
     16          1           0       -4.183856   -0.556338   -0.021875
 ---------------------------------------------------------------------
                    Distance matrix (angstroms):
                    1          2          3          4          5
     1  C    0.000000
     2  C    1.361700   0.000000
     3  C    2.316978   1.423442   0.000000
     4  C    2.482157   2.329630   1.369278   0.000000
     5  S    1.721700   2.561035   2.563090   1.734810   0.000000
     6  H    1.078795   2.200608   3.363284   3.532132   2.444334
     7  H    2.154954   1.081026   2.217343   3.350203   3.604781
     8  H    3.339652   2.219117   1.082134   2.156967   3.608133
     9  C    3.902722   3.744320   2.545851   1.454963   2.773444
    10  C    4.720087   4.850148   3.801289   2.545851   3.247215
    11  S    5.195563   4.651291   3.247215   2.773444   4.368197
    12  C    6.073152   6.053911   4.850148   3.744320   4.651291
    13  H    4.589610   5.005990   4.207683   2.873980   2.967415
    14  C    6.376993   6.073152   4.720087   3.902722   5.195563
    15  H    6.935022   7.026388   5.874984   4.713013   5.414376
    16  H    7.402929   7.017039   5.628740   4.921584   6.264194
                    6          7          8          9         10
     6  H    0.000000
     7  H    2.627517   0.000000
     8  H    4.345443   2.635046   0.000000
     9  C    4.921584   4.713013   2.873980   0.000000
    10  C    5.628740   5.874985   4.207683   1.369278   0.000000
    11  S    6.264194   5.414376   2.967415   1.734810   2.563089
    12  C    7.017039   7.026388   5.005990   2.329630   1.423442
    13  H    5.358961   6.068533   4.815105   2.156967   1.082134
    14  C    7.402929   6.935022   4.589610   2.482157   2.316978
    15  H    7.823613   8.021764   6.068532   3.350203   2.217343
    16  H    8.441365   7.823613   5.358961   3.532132   3.363284
                   11         12         13         14         15
    11  S    0.000000
    12  C    2.561035   0.000000
    13  H    3.608133   2.219117   0.000000
    14  C    1.721700   1.361700   3.339652   0.000000
    15  H    3.604781   1.081026   2.635045   2.154954   0.000000
    16  H    2.444334   2.200608   4.345443   1.078795   2.627517
                   16
    16  H    0.000000
 Stoichiometry    C8H6S2
 Framework group  C1[X(C8H6S2)]
 Deg. of freedom    42
 Full point group                 C1      NOp   1
 Largest Abelian subgroup         C1      NOp   1
 Largest concise Abelian subgroup C1      NOp   1
                         Standard orientation:                         
 ---------------------------------------------------------------------
 Center     Atomic      Atomic             Coordinates (Angstroms)
 Number     Number       Type             X           Y           Z
 ---------------------------------------------------------------------
      1          6           0       -3.185630   -0.135172    0.000654
      2          6           0       -2.797987    1.154879    0.199978
      3          6           0       -1.382466    1.304320    0.212426
      4          6           0       -0.717018    0.122944    0.021504
      5         16           0       -1.835556   -1.183646   -0.204902
      6          1           0       -4.186869   -0.533182   -0.053269
      7          1           0       -3.493512    1.970429    0.340473
      8          1           0       -0.873017    2.243697    0.382857
      9          6           0        0.717017   -0.122944    0.021523
     10          6           0        1.382461   -1.304315    0.212486
     11         16           0        1.835561    1.183642   -0.204885
     12          6           0        2.797983   -1.154874    0.200069
     13          1           0        0.873008   -2.243689    0.382926
     14          6           0        3.185630    0.135172    0.000724
     15          1           0        3.493504   -1.970421    0.340599
     16          1           0        4.186870    0.533180   -0.053184
 ---------------------------------------------------------------------
 Rotational constants (GHZ):           2.7062020           0.6545319           0.5329068
 Standard basis: 6-311+G(d,p) (5D, 7F)
 There are   282 symmetry adapted cartesian basis functions of A   symmetry.
 There are   272 symmetry adapted basis functions of A   symmetry.
   272 basis functions,   436 primitive gaussians,   282 cartesian basis functions
    43 alpha electrons       43 beta electrons
       nuclear repulsion energy       633.3548420329 Hartrees.
 NAtoms=   16 NActive=   16 NUniq=   16 SFac= 1.00D+00 NAtFMM=   60 NAOKFM=F Big=F
 Integral buffers will be    131072 words long.
 Raffenetti 2 integral format.
 Two-electron integral symmetry is turned on.
 One-electron integrals computed using PRISM.
 NBasis=   272 RedAO= T EigKep=  1.02D-06  NBF=   272
 NBsUse=   272 1.00D-06 EigRej= -1.00D+00 NBFU=   272
 Initial guess from the checkpoint file:  "/work/mmh568/Gau_scratch/Gau-34222.chk"
 B after Tr=    -0.000000   -0.000000   -0.000000
         Rot=    1.000000    0.000000   -0.000000   -0.000370 Ang=   0.04 deg.
 ExpMin= 4.05D-02 ExpMax= 9.34D+04 ExpMxC= 3.17D+03 IAcc=3 IRadAn=         5 AccDes= 0.00D+00
 Harris functional with IExCor= 1009 and IRadAn=       5 diagonalized for initial guess.
 HarFok:  IExCor= 1009 AccDes= 0.00D+00 IRadAn=         5 IDoV= 1 UseB2=F ITyADJ=14
 ICtDFT=  3500011 ScaDFX=  1.000000  1.000000  1.000000  1.000000
 FoFCou: FMM=F IPFlag=           0 FMFlag=      100000 FMFlg1=           0
         NFxFlg=           0 DoJE=T BraDBF=F KetDBF=T FulRan=T
         wScrn=  0.000000 ICntrl=       500 IOpCl=  0 I1Cent=   200000004 NGrid=           0
         NMat0=    1 NMatS0=      1 NMatT0=    0 NMatD0=    1 NMtDS0=    0 NMtDT0=    0
 Petite list used in FoFCou.
 Requested convergence on RMS density matrix=1.00D-08 within 128 cycles.
 Requested convergence on MAX density matrix=1.00D-06.
 Requested convergence on             energy=1.00D-06.
 No special actions if energy rises.
 SCF Done:  E(RM062X) =  -1104.75624816     A.U. after   14 cycles
            NFock= 14  Conv=0.38D-08     -V/T= 2.0019
 Calling FoFJK, ICntrl=      2127 FMM=F ISym2X=0 I1Cent= 0 IOpClX= 0 NMat=1 NMatS=1 NMatT=0.
 ***** Axes restored to original set *****
 -------------------------------------------------------------------
 Center     Atomic                   Forces (Hartrees/Bohr)
 Number     Number              X              Y              Z
 -------------------------------------------------------------------
      1        6           0.000232134   -0.000368781   -0.001231267
      2        6           0.000046261    0.000084328   -0.000168746
      3        6          -0.000177684    0.000227740    0.000666286
      4        6          -0.000269153    0.000371234   -0.000557051
      5       16           0.000011547    0.000158874    0.001021983
      6        1           0.000005942    0.000009953   -0.000079271
      7        1          -0.000005124    0.000041129    0.000168557
      8        1           0.000065662   -0.000024053    0.000179501
      9        6           0.000269133   -0.000371210   -0.000557125
     10        6           0.000177611   -0.000227769    0.000666524
     11       16          -0.000011481   -0.000158969    0.001021918
     12        6          -0.000046204   -0.000084265   -0.000169014
     13        1          -0.000065655    0.000024052    0.000179500
     14        6          -0.000232179    0.000368821   -0.001231086
     15        1           0.000005119   -0.000041127    0.000168546
     16        1          -0.000005929   -0.000009957   -0.000079256
 -------------------------------------------------------------------
 Cartesian Forces:  Max     0.001231267 RMS     0.000404918

 GradGradGradGradGradGradGradGradGradGradGradGradGradGradGradGradGradGrad
 Berny optimization.
 Using GEDIIS/GDIIS optimizer.
 FormGI is forming the generalized inverse of G from B-inverse, IUseBI=4.
 Internal  Forces:  Max     0.000911809 RMS     0.000321526
 Search for a local minimum.
 Step number   2 out of a maximum of   89 on scan point     2 out of    37
 All quantities printed in internal units (Hartrees-Bohrs-Radians)
 Mixed Optimization -- En-DIIS/RFO-DIIS
 Update second derivatives using D2CorX and points    1    2
 DE= -1.42D-04 DEPred=-2.53D-04 R= 5.60D-01
 TightC=F SS=  1.41D+00  RLast= 1.69D-01 DXNew= 5.0454D-01 5.0589D-01
 Trust test= 5.60D-01 RLast= 1.69D-01 DXMaxT set to 5.05D-01
 ITU=  1  0
 Use linear search instead of GDIIS.
     Eigenvalues ---    0.01063   0.01737   0.01787   0.02010   0.02048
     Eigenvalues ---    0.02110   0.02174   0.02174   0.02238   0.02336
     Eigenvalues ---    0.02342   0.04121   0.15976   0.15991   0.15997
     Eigenvalues ---    0.15998   0.15999   0.16000   0.22129   0.22136
     Eigenvalues ---    0.23796   0.23858   0.24992   0.25009   0.31279
     Eigenvalues ---    0.31286   0.32504   0.32518   0.35741   0.35741
     Eigenvalues ---    0.35869   0.35869   0.36133   0.36135   0.37569
     Eigenvalues ---    0.40714   0.40732   0.48003   0.48006   0.51501
     Eigenvalues ---    0.515021000.000001000.000001000.000001000.00000
     Eigenvalues --- 1000.000001000.000001000.000001000.000001000.00000
     Eigenvalues --- 1000.000001000.000001000.000001000.000001000.00000
     Eigenvalues --- 1000.000001000.000001000.000001000.000001000.00000
     Eigenvalues --- 1000.000001000.000001000.000001000.000001000.00000
     Eigenvalues --- 1000.000001000.000001000.000001000.000001000.00000
     Eigenvalues --- 1000.000001000.000001000.000001000.000001000.00000
     Eigenvalues --- 1000.000001000.000001000.000001000.00000
 RFO step:  Lambda=-1.48804289D-04 EMin= 1.06346712D-02
 Quartic linear search produced a step of -0.29745.
 Iteration  1 RMS(Cart)=  0.02408676 RMS(Int)=  0.00030466
 Iteration  2 RMS(Cart)=  0.00047207 RMS(Int)=  0.00002034
 Iteration  3 RMS(Cart)=  0.00000004 RMS(Int)=  0.00002034
 Iteration  1 RMS(Cart)=  0.00000064 RMS(Int)=  0.00000031
 Variable       Old X    -DE/DX   Delta X   Delta X   Delta X     New X
                                 (Linear)    (Quad)   (Total)
    R1        2.57324  -0.00011   0.00004  -0.00024  -0.00021   2.57303
    R2        3.25354   0.00009  -0.00018   0.00057   0.00038   3.25392
    R3        2.03863   0.00001   0.00011  -0.00020  -0.00009   2.03854
    R4        2.68992   0.00013   0.00016  -0.00013   0.00004   2.68996
    R5        2.04284  -0.00001   0.00001  -0.00005  -0.00004   2.04281
[...]
 ---------------------------------------------------------------------
 Center     Atomic      Atomic             Coordinates (Angstroms)
 Number     Number       Type             X           Y           Z
 ---------------------------------------------------------------------
      1          6           0        2.906461   -1.304463    0.348745
      2          6           0        3.027302    0.016117    0.038791
      3          6           0        1.768480    0.675961   -0.043197
      4          6           0        0.710731   -0.155737    0.209059
      5         16           0        1.260743   -1.762029    0.563306
      6          1           0        3.687867   -2.038605    0.468494
      7          1           0        3.977301    0.502066   -0.134425
      8          1           0        1.644756    1.719712   -0.300568
      9          6           0       -0.710726    0.155736    0.209076
     10          6           0       -1.768483   -0.675970   -0.043120
     11         16           0       -1.260728    1.762040    0.563287
     12          6           0       -3.027302   -0.016124    0.038886
     13          1           0       -1.644766   -1.719729   -0.300461
     14          6           0       -2.906452    1.304466    0.348793
     15          1           0       -3.977307   -0.502079   -0.134284
     16          1           0       -3.687855    2.038612    0.468543
 ---------------------------------------------------------------------
                    Distance matrix (angstroms):
                    1          2          3          4          5
     1  C    0.000000
     2  C    1.361839   0.000000
     3  C    2.317477   1.423639   0.000000
     4  C    2.481998   2.329168   1.369010   0.000000
     5  S    1.721566   2.560790   2.563092   1.734410   0.000000
     6  H    1.078842   2.200653   3.363740   3.532116   2.444671
     7  H    2.154925   1.081041   2.217533   3.349801   3.604531
     8  H    3.340530   2.220097   1.082111   2.156254   3.607806
     9  C    3.903297   3.744508   2.545729   1.455182   2.773084
    10  C    4.733250   4.846157   3.786532   2.545729   3.274674
    11  S    5.178314   4.659457   3.274674   2.773084   4.333230
    12  C    6.079915   6.054689   4.846158   3.744508   4.659456
    13  H    4.616013   4.995645   4.178010   2.872986   3.031480
    14  C    6.371536   6.079916   4.733251   3.903297   5.178313
    15  H    6.947186   7.025882   5.866016   4.713336   5.432428
    16  H    7.394289   7.026272   5.647149   4.922404   6.240391
                    6          7          8          9         10
     6  H    0.000000
     7  H    2.627222   0.000000
     8  H    4.346344   2.636481   0.000000
     9  C    4.922404   4.713336   2.872986   0.000000
    10  C    5.647148   5.866015   4.178010   1.369010   0.000000
    11  S    6.240392   5.432429   3.031480   1.734410   2.563092
    12  C    7.026272   7.025882   4.995646   2.329168   1.423639
    13  H    5.397217   6.047444   4.759276   2.156254   1.082111
    14  C    7.394289   6.947186   4.616015   2.481998   2.317477
    15  H    7.840864   8.017736   6.047445   3.349801   2.217533
    16  H    8.427632   7.840865   5.397219   3.532116   3.363740
                   11         12         13         14         15
    11  S    0.000000
    12  C    2.560790   0.000000
    13  H    3.607806   2.220098   0.000000
    14  C    1.721566   1.361839   3.340530   0.000000
    15  H    3.604531   1.081041   2.636481   2.154925   0.000000
    16  H    2.444671   2.200654   4.346344   1.078842   2.627222
                   16
    16  H    0.000000
 Stoichiometry    C8H6S2
 Framework group  C1[X(C8H6S2)]
 Deg. of freedom    42
 Full point group                 C1      NOp   1
 Largest Abelian subgroup         C1      NOp   1
 Largest concise Abelian subgroup C1      NOp   1
                         Standard orientation:                         
 ---------------------------------------------------------------------
 Center     Atomic      Atomic             Coordinates (Angstroms)
 Number     Number       Type             X           Y           Z
 ---------------------------------------------------------------------
      1          6           0       -3.182718   -0.139375   -0.061129
      2          6           0       -2.807518    1.132536    0.248826
      3          6           0       -1.394024    1.281066    0.330813
      4          6           0       -0.718018    0.117635    0.078557
      5         16           0       -1.822160   -1.172155   -0.275690
      6          1           0       -4.179947   -0.533198   -0.180878
      7          1           0       -3.511021    1.934863    0.422041
      8          1           0       -0.893727    2.205418    0.588184
      9          6           0        0.718019   -0.117638    0.078540
     10          6           0        1.394029   -1.281079    0.330736
     11         16           0        1.822156    1.172167   -0.275671
     12          6           0        2.807521   -1.132547    0.248730
     13          1           0        0.893736   -2.205442    0.588077
     14          6           0        3.182717    0.139377   -0.061177
     15          1           0        3.511028   -1.934881    0.421900
     16          1           0        4.179944    0.533204   -0.180926
 ---------------------------------------------------------------------
 Rotational constants (GHZ):           2.7056898           0.6513636           0.5364773

 **********************************************************************

            Population analysis using the SCF Density.

 **********************************************************************

 Orbital symmetries:
       Occupied  (A) (A) (A) (A) (A) (A) (A) (A) (A) (A) (A) (A)
                 (A) (A) (A) (A) (A) (A) (A) (A) (A) (A) (A) (A)
                 (A) (A) (A) (A) (A) (A) (A) (A) (A) (A) (A) (A)
                 (A) (A) (A) (A) (A) (A) (A)
       Virtual   (A) (A) (A) (A) (A) (A) (A) (A) (A) (A) (A) (A)
                 (A) (A) (A) (A) (A) (A) (A) (A) (A) (A) (A) (A)
                 (A) (A) (A) (A) (A) (A) (A) (A) (A) (A) (A) (A)
                 (A) (A) (A) (A) (A) (A) (A) (A) (A) (A) (A) (A)
                 (A) (A) (A) (A) (A) (A) (A) (A) (A) (A) (A) (A)
                 (A) (A) (A) (A) (A) (A) (A) (A) (A) (A) (A) (A)
                 (A) (A) (A) (A) (A) (A) (A) (A) (A) (A) (A) (A)
                 (A) (A) (A) (A) (A) (A) (A) (A) (A) (A) (A) (A)
                 (A) (A) (A) (A) (A) (A) (A) (A) (A) (A) (A) (A)
                 (A) (A) (A) (A) (A) (A) (A) (A) (A) (A) (A) (A)
                 (A) (A) (A) (A) (A) (A) (A) (A) (A) (A) (A) (A)
                 (A) (A) (A) (A) (A) (A) (A) (A) (A) (A) (A) (A)
                 (A) (A) (A) (A) (A) (A) (A) (A) (A) (A) (A) (A)
                 (A) (A) (A) (A) (A) (A) (A) (A) (A) (A) (A) (A)
                 (A) (A) (A) (A) (A) (A) (A) (A) (A) (A) (A) (A)
                 (A) (A) (A) (A) (A) (A) (A) (A) (A) (A) (A) (A)
                 (A) (A) (A) (A) (A) (A) (A) (A) (A) (A) (A) (A)
                 (A) (A) (A) (A) (A) (A) (A) (A) (A) (A) (A) (A)
                 (A) (A) (A) (A) (A) (A) (A) (A) (A) (A) (A) (A)
                 (A)
 The electronic state is 1-A.
 Alpha  occ. eigenvalues --  -89.92901 -89.92901 -10.58828 -10.58776 -10.57395
 Alpha  occ. eigenvalues --  -10.57395 -10.55109 -10.55109 -10.55039 -10.55039
 Alpha  occ. eigenvalues --   -8.29467  -8.29467  -6.21539  -6.21538  -6.21321
 Alpha  occ. eigenvalues --   -6.21321  -6.21102  -6.21102  -1.00642  -0.98191
 Alpha  occ. eigenvalues --   -0.86699  -0.84003  -0.82675  -0.79553  -0.68128
 Alpha  occ. eigenvalues --   -0.65770  -0.62726  -0.60790  -0.60199  -0.54544
 Alpha  occ. eigenvalues --   -0.48179  -0.48119  -0.47852  -0.46601  -0.45674
 Alpha  occ. eigenvalues --   -0.44397  -0.43456  -0.41328  -0.40023  -0.33501
 Alpha  occ. eigenvalues --   -0.31348  -0.30965  -0.26319
 Alpha virt. eigenvalues --   -0.02218   0.00981   0.01487   0.02556   0.02926
 Alpha virt. eigenvalues --    0.03177   0.03603   0.04257   0.04411   0.04663
 Alpha virt. eigenvalues --    0.05686   0.06304   0.06473   0.06784   0.07515
 Alpha virt. eigenvalues --    0.08000   0.09036   0.09245   0.10025   0.10106
 Alpha virt. eigenvalues --    0.10891   0.11593   0.12674   0.13618   0.13688
 Alpha virt. eigenvalues --    0.14259   0.14761   0.14829   0.15876   0.16378
 Alpha virt. eigenvalues --    0.16890   0.17285   0.18110   0.18155   0.18364
 Alpha virt. eigenvalues --    0.18984   0.19782   0.19903   0.20608   0.20885
 Alpha virt. eigenvalues --    0.21342   0.21622   0.21784   0.22193   0.23421
 Alpha virt. eigenvalues --    0.23659   0.24657   0.25008   0.26213   0.27245
 Alpha virt. eigenvalues --    0.27299   0.27877   0.28625   0.29363   0.30230
 Alpha virt. eigenvalues --    0.31686   0.35117   0.35879   0.36551   0.36823
 Alpha virt. eigenvalues --    0.38367   0.39744   0.43085   0.43884   0.45717
 Alpha virt. eigenvalues --    0.46429   0.48626   0.51452   0.53871   0.55280
 Alpha virt. eigenvalues --    0.56532   0.57643   0.58175   0.58563   0.58992
 Alpha virt. eigenvalues --    0.61365   0.63049   0.63258   0.64724   0.65352
 Alpha virt. eigenvalues --    0.66706   0.67922   0.70369   0.70734   0.74519
 Alpha virt. eigenvalues --    0.74664   0.75023   0.75345   0.77503   0.78940
 Alpha virt. eigenvalues --    0.79014   0.79520   0.79884   0.81367   0.82018
 Alpha virt. eigenvalues --    0.83398   0.83851   0.84330   0.85893   0.86053
 Alpha virt. eigenvalues --    0.87642   0.88919   0.91002   0.91519   0.93520
 Alpha virt. eigenvalues --    0.96266   0.96267   0.96600   1.01029   1.02165
 Alpha virt. eigenvalues --    1.02217   1.05399   1.05514   1.07328   1.08703
 Alpha virt. eigenvalues --    1.08894   1.13477   1.13692   1.15120   1.17375
 Alpha virt. eigenvalues --    1.22777   1.27935   1.29409   1.37718   1.40439
 Alpha virt. eigenvalues --    1.40800   1.45597   1.49659   1.56923   1.57472
 Alpha virt. eigenvalues --    1.59145   1.59340   1.60465   1.61911   1.62157
 Alpha virt. eigenvalues --    1.62824   1.68181   1.68635   1.71836   1.73228
 Alpha virt. eigenvalues --    1.74442   1.76346   1.77202   1.77917   1.78550
 Alpha virt. eigenvalues --    1.81754   1.82895   1.84899   1.86551   1.90702
 Alpha virt. eigenvalues --    1.91867   1.93622   1.95314   1.98345   1.99236
 Alpha virt. eigenvalues --    1.99429   2.02963   2.03925   2.06331   2.07592
 Alpha virt. eigenvalues --    2.11215   2.12769   2.14656   2.16822   2.17156
 Alpha virt. eigenvalues --    2.19340   2.25049   2.30142   2.31992   2.39545
 Alpha virt. eigenvalues --    2.42115   2.45621   2.46899   2.50229   2.56529
 Alpha virt. eigenvalues --    2.67268   2.68659   2.72152   2.73741   2.74432
 Alpha virt. eigenvalues --    2.75111   2.76866   2.76930   2.77723   2.78647
 Alpha virt. eigenvalues --    2.79641   2.80582   2.82741   2.87291   2.92263
 Alpha virt. eigenvalues --    2.98148   3.04458   3.06562   3.18810   3.19845
 Alpha virt. eigenvalues --    3.24268   3.27859   3.33506   3.33818   3.40108
 Alpha virt. eigenvalues --    3.41444   3.43405   3.57149   3.57942   3.66797
 Alpha virt. eigenvalues --    3.89240   4.07123   4.07579   4.20051   4.30962
 Alpha virt. eigenvalues --    4.54002   8.13710   8.15121  17.47351  17.48523
 Alpha virt. eigenvalues --   17.66205  17.66984  17.69859  17.71031  23.62098
 Alpha virt. eigenvalues --   23.81365  23.89282  23.93544  24.17581  24.20511
 Alpha virt. eigenvalues --   24.23910  24.24471 189.43261 189.44936
          Condensed to atoms (all electrons):
               1          2          3          4          5          6
     1  C    5.864985   0.065808   1.020038  -0.333628  -0.203019   0.333120
     2  C    0.065808   6.933712  -1.435142   1.597297   0.505700   0.049614
     3  C    1.020038  -1.435142  10.848685  -4.147703  -2.087129  -0.051268
     4  C   -0.333628   1.597297  -4.147703  29.340720   1.029930   0.034930
     5  S   -0.203019   0.505700  -2.087129   1.029930  16.951669  -0.022565
     6  H    0.333120   0.049614  -0.051268   0.034930  -0.022565   0.453768
     7  H   -0.000476   0.346314  -0.026658   0.006004   0.004833  -0.004335
     8  H   -0.035573   0.022023   0.207786   0.030686   0.019400  -0.000057
     9  C   -0.623591  -1.482080   1.532927 -20.850143   0.058583   0.019240
    10  C   -0.221591   0.150920  -0.723062   1.532908   0.150576   0.001181
    11  S    0.073137  -0.077215   0.150575   0.058592   0.021214  -0.000603
    12  C   -0.003372  -0.035387   0.150922  -1.482077  -0.077216   0.000017
    13  H    0.004186  -0.002155  -0.004106   0.099092   0.005063  -0.000001
    14  C   -0.031746  -0.003372  -0.221591  -0.623595   0.073137   0.000041
    15  H    0.000092   0.000022   0.000318   0.019981   0.000373  -0.000000
    16  H    0.000041   0.000017   0.001181   0.019240  -0.000603   0.000000
               7          8          9         10         11         12
     1  C   -0.000476  -0.035573  -0.623591  -0.221591   0.073137  -0.003372
     2  C    0.346314   0.022023  -1.482080   0.150920  -0.077215  -0.035387
     3  C   -0.026658   0.207786   1.532927  -0.723062   0.150575   0.150922
     4  C    0.006004   0.030686 -20.850143   1.532908   0.058592  -1.482077
     5  S    0.004833   0.019400   0.058583   0.150576   0.021214  -0.077216
     6  H   -0.004335  -0.000057   0.019240   0.001181  -0.000603   0.000017
     7  H    0.492338  -0.003594   0.019981   0.000318   0.000373   0.000022
     8  H   -0.003594   0.486472   0.099093  -0.004106   0.005063  -0.002155
     9  C    0.019981   0.099093  29.340686  -4.147675   1.029920   1.597293
    10  C    0.000318  -0.004106  -4.147675  10.848674  -2.087128  -1.435140
    11  S    0.000373   0.005063   1.029920  -2.087128  16.951670   0.505699
    12  C    0.000022  -0.002155   1.597293  -1.435140   0.505699   6.933709
    13  H    0.000001   0.000041   0.030686   0.207787   0.019400   0.022023
    14  C    0.000092   0.004186  -0.333624   1.020038  -0.203019   0.065809
    15  H    0.000000   0.000001   0.006004  -0.026658   0.004833   0.346314
    16  H   -0.000000  -0.000001   0.034930  -0.051268  -0.022565   0.049614
              13         14         15         16
     1  C    0.004186  -0.031746   0.000092   0.000041
     2  C   -0.002155  -0.003372   0.000022   0.000017
     3  C   -0.004106  -0.221591   0.000318   0.001181
     4  C    0.099092  -0.623595   0.019981   0.019240
     5  S    0.005063   0.073137   0.000373  -0.000603
     6  H   -0.000001   0.000041  -0.000000   0.000000
     7  H    0.000001   0.000092   0.000000  -0.000000
     8  H    0.000041   0.004186   0.000001  -0.000001
     9  C    0.030686  -0.333624   0.006004   0.034930
    10  C    0.207787   1.020038  -0.026658  -0.051268
    11  S    0.019400  -0.203019   0.004833  -0.022565
    12  C    0.022023   0.065809   0.346314   0.049614
    13  H    0.486472  -0.035573  -0.003594  -0.000057
    14  C   -0.035573   5.864985  -0.000476   0.333120
    15  H   -0.003594  -0.000476   0.492338  -0.004335
    16  H   -0.000057   0.333120  -0.004335   0.453768
 Mulliken charges:
               1
     1  C    0.091588
     2  C   -0.636076
     3  C    0.784227
     4  C   -0.332234
     5  S   -0.429946
     6  H    0.186917
     7  H    0.164786
     8  H    0.170735
     9  C   -0.332229
    10  C    0.784227
    11  S   -0.429946
    12  C   -0.636076
    13  H    0.170735
    14  C    0.091588
    15  H    0.164786
    16  H    0.186917
 Sum of Mulliken charges =  -0.00000
 Mulliken charges with hydrogens summed into heavy atoms:
               1
     1  C    0.278505
     2  C   -0.471290
     3  C    0.954962
     4  C   -0.332234
     5  S   -0.429946
     9  C   -0.332229
    10  C    0.954962
    11  S   -0.429946
    12  C   -0.471289
    14  C    0.278505
 Electronic spatial extent (au):  <R**2>=           1996.5701
 Charge=             -0.0000 electrons
 Dipole moment (field-independent basis, Debye):
    X=              0.0000    Y=             -0.0000    Z=              0.2806  Tot=              0.2806
 Quadrupole moment (field-independent basis, Debye-Ang):
   XX=            -60.2655   YY=            -68.0381   ZZ=            -78.4666
   XY=             -1.3428   XZ=             -0.0002   YZ=              0.0002
 Traceless Quadrupole moment (field-independent basis, Debye-Ang):
   XX=              8.6579   YY=              0.8853   ZZ=             -9.5432
   XY=             -1.3428   XZ=             -0.0002   YZ=              0.0002
 Octapole moment (field-independent basis, Debye-Ang**2):
  XXX=             -0.0001  YYY=             -0.0003  ZZZ=             -2.6500  XYY=              0.0003
  XXY=             -0.0001  XXZ=             -2.7117  XZZ=             -0.0003  YZZ=              0.0004
  YYZ=              4.4782  XYZ=             -6.5071
 Hexadecapole moment (field-independent basis, Debye-Ang**3):
 XXXX=          -1832.7743 YYYY=           -531.7367 ZZZZ=           -129.9332 XXXY=             21.6798
 XXXZ=              0.0052 YYYX=            -17.1626 YYYZ=             -0.0036 ZZZX=              0.0099
 ZZZY=             -0.0049 XXYY=           -408.9636 XXZZ=           -418.5441 YYZZ=           -118.8759
 XXYZ=              0.0001 YYXZ=              0.0018 ZZXY=              6.4026
 N-N= 6.332713482253D+02 E-N=-3.875695531584D+03  KE= 1.102610434613D+03
 Unable to Open any file for archive entry.
 1\1\GINC-SCOUT-4-17\Scan\RM062X\6-311+G(d,p)\C8H6S2\MMH568\15-Jan-2021
 \0\\# m062x/6-311+g** opt=(tight,modredundant)\\Title Card Required\\0
 ,1\C,2.9064607702,-1.3044632925,0.3487449098\C,3.0273015996,0.01611678
 53,0.038790711\C,1.7684802031,0.675961111,-0.0431966028\C,0.7107309983
 ,-0.1557368816,0.2090592518\S,1.26074343,-1.7620291765,0.5633064764\H,
 3.6878674555,-2.0386054829,0.4684938529\H,3.9773010536,0.5020662214,-0
 .1344251028\H,1.6447559993,1.7197118065,-0.3005678748\C,-0.7107259062,
 0.1557364255,0.2090761864\C,-1.7684826372,-0.6759702636,-0.0431197238\
 S,-1.2607278063,1.762040254,0.5632871996\C,-3.027301803,-0.0161237858,
 0.038885791\H,-1.6447659821,-1.7197292638,-0.300460885\C,-2.9064517902
 ,1.3044664652,0.3487930251\H,-3.977306609,-0.5020792206,-0.1342838658\
 H,-3.6878549756,2.0386122983,0.468542651\\Version=ES64L-G16RevC.01\Sta
 te=1-A\HF=-1104.7564563,-1104.7563066,-1104.7560986,-1104.7560308,-110
 4.7562055,-1104.7564294,-1104.7564182,-1104.7561132,-1104.7555167,-110
 4.7546956,-1104.753851,-1104.7531757,-1104.7529824,-1104.7533371,-1104
 .7540232,-1104.7547173,-1104.7552288,-1104.7554187,-1104.7552551,-1104
 .7548054,-1104.7544052,-1104.7543099,-1104.7545899,-1104.7550757,-1104
 .7553794,-1104.7553665,-1104.7549984,-1104.754374,-1104.7536478,-1104.
 7530985,-1104.7530064,-1104.7534846,-1104.7542759,-1104.7551352,-1104.
 7558584,-1104.7563076,-1104.7564563\RMSD=5.982e-09,6.256e-09,7.003e-09
 ,8.499e-09,7.621e-09,8.732e-09,5.130e-09,4.036e-09,8.070e-09,9.215e-09
 ,3.285e-09,3.813e-09,5.667e-09,4.699e-09,5.545e-09,6.709e-09,8.206e-09
 ,1.978e-09,4.444e-09,4.324e-09,4.936e-09,3.266e-09,7.427e-09,3.791e-09
 ,3.812e-09,2.651e-09,6.196e-09,9.298e-09,2.168e-09,2.462e-09,6.780e-09
 ,2.822e-09,6.525e-09,4.027e-09,3.360e-09,4.591e-09,4.983e-09\PG=C01 [X
 (C8H6S2)]\\@
 The archive entry for this job was punched.


 ... I FELL INTO A REVERIE ... THE ATOMS WERE GAMBOLING BEFORE MY EYES
 ... I SAW HOW TWO SMALL ONES UNITED TO FORM A PAIR;
 HOW THE LARGER ONES SEIZED TWO OF THE SMALLER ONES;
 HOW STILL LARGER ONES KEPT HOLD OF THREE OR FOUR
 SMALLER ONES ... I SAW HOW THE LARGER ONES FORMED A CHAIN ...
 THIS WAS THE ORIGIN OF THE STRUCTURE THEORY.

                                   -- C.F.KEKULE VON STRADONITZ
 Job cpu time:       1 days  4 hours 30 minutes 54.1 seconds.
 Elapsed time:       0 days  1 hours 54 minutes 26.9 seconds.
 File lengths (MBytes):  RWF=     53 Int=      0 D2E=      0 Chk=     10 Scr=      1
 Normal termination of Gaussian 16 at Fri Jan 15 01:42:48 2021.
